LAMMPS (30 Jul 2021)
OMP_NUM_THREADS environment is not set. Defaulting to 1 thread. (src/comm.cpp:98)
  using 1 OpenMP thread(s) per MPI task
-in Cu.compression.in
ERROR: Unknown command: -in Cu.compression.in (src/input.cpp:274)
Last command: -in Cu.compression.in
