LAMMPS (30 Jul 2021)
OMP_NUM_THREADS environment is not set. Defaulting to 1 thread. (src/comm.cpp:98)
  using 1 OpenMP thread(s) per MPI task
# LMO uniaxial tensile test, Prateek Gandhi, October 2021.

##---------------INITIALIZATION-------------------------------

units          metal
dimension 	    3
boundary       p p p
atom_style 	atomic
newton 		on


##---------------ATOM DEFINITION------------------------------

read_data 	limn2o4.lmp
Reading data file ...
  orthogonal box = (0.0000000 0.0000000 0.0000000) to (8.2450000 8.2450000 8.2450000)
  1 by 1 by 1 MPI processor grid
  reading atoms ...
  56 atoms
  read_data CPU = 0.000 seconds


##---------------FORCE FIELDS---------------------------------

pair_style 	meam
pair_coeff     * * library.meam Li Mn O library.meam_alloy Li Mn O


##---------------SETTINGS-------------------------------------

timestep 	0.00002
variable   ts equal 0.00002


##---------------COMPUTES-------------------------------------

compute 	1 all stress/atom NULL
compute    2 all reduce sum c_1[1] c_1[2]


variable   Lx equal lx
variable   Ly equal ly
variable   Lz equal lz
variable   Vol equal vol
variable   thickn equal 8.245
fix 1 all npt temp 300 300 1 iso 0 0 1 drag 1
thermo 	2000
##---------------RELAXATION--------------------------------------

run            50000
Neighbor list info ...
  update every 1 steps, delay 10 steps, check yes
  max neighbors/atom: 2000, page size: 100000
  master list distance cutoff = 6.8
  ghost atom cutoff = 6.8
  binsize = 3.4, bins = 3 3 3
  2 neighbor lists, perpetual/occasional/extra = 2 0 0
  (1) pair meam, perpetual
      attributes: full, newton on
      pair build: full/bin/atomonly
      stencil: full/bin/3d
      bin: standard
  (2) pair meam, perpetual, half/full from (1)
      attributes: half, newton on
      pair build: halffull/newton
      stencil: none
      bin: none
Per MPI rank memory allocation (min/avg/max) = 8.968 | 8.968 | 8.968 Mbytes
Step Temp E_pair E_mol TotEng Press Volume 
       0            0   -107.09453            0   -107.09453    44246.373    560.49531 
    2000    40.587868   -107.56047            0   -107.27192    12963.547    571.56399 
    4000    50.677468   -107.62944            0   -107.26915   -20707.547    591.31472 
    6000    42.955816   -107.46203            0   -107.15664    -27855.27    597.84384 
    8000    29.448784   -107.49554            0   -107.28618   -14082.109    586.29481 
   10000   0.16829891   -107.25608            0   -107.25489    25276.839    569.66736 
   12000    35.290953   -107.45212            0   -107.20123    23605.371    566.52371 
   14000    56.653011    -107.7197            0   -107.31693    1066.5154    578.16173 
   16000    35.485743   -107.48893            0   -107.23665   -15033.058    590.54051 
   18000     13.86446   -107.32974            0   -107.23117   -22472.512    591.58904 
   20000   0.26014971   -107.30032            0   -107.29848    5971.9364    580.31613 
   22000    33.848551    -107.4865            0   -107.24586     14476.74    570.95179 
   24000    61.853466   -107.69753            0   -107.25779    12460.491    572.17314 
   26000    30.729661   -107.49476            0    -107.2763     602.9596    581.59467 
   28000    3.9519343   -107.26945            0   -107.24135   -18072.589    589.12887 
   30000    4.0675604   -107.28484            0   -107.25592   -3472.4953    585.98592 
   32000    39.599077   -107.55513            0   -107.27361    642.49481     578.0085 
   34000    65.319268   -107.70263            0   -107.23826    10987.285    572.93729 
   36000    28.675727   -107.45495            0   -107.25109    11030.117      576.054 
   38000   0.46904491   -107.25861            0   -107.25527   -8504.9792    583.72609 
   40000    12.301097   -107.32218            0   -107.23473   -4830.6574    586.44383 
   42000    49.841182   -107.60718            0   -107.25285   -8729.2014    583.17431 
   44000     66.95385    -107.7152            0   -107.23921    3201.4233    576.93533 
   46000    26.667675   -107.41728            0   -107.22769     13821.61    574.83212 
   48000  0.030067282   -107.24003            0   -107.23982    95.846289    579.12121 
   50000    22.337761   -107.39197            0   -107.23316   -1410.7949    583.80212 
Loop time of 95.7368 on 1 procs for 50000 steps with 56 atoms

Performance: 0.902 ns/day, 26.594 hours/ns, 522.265 timesteps/s
98.8% CPU use with 1 MPI tasks x 1 OpenMP threads

MPI task timing breakdown:
Section |  min time  |  avg time  |  max time  |%varavg| %total
---------------------------------------------------------------
Pair    | 92.908     | 92.908     | 92.908     |   0.0 | 97.04
Neigh   | 0          | 0          | 0          |   0.0 |  0.00
Comm    | 0.254      | 0.254      | 0.254      |   0.0 |  0.27
Output  | 0          | 0          | 0          |   0.0 |  0.00
Modify  | 2.4336     | 2.4336     | 2.4336     |   0.0 |  2.54
Other   |            | 0.1417     |            |       |  0.15

Nlocal:        56.0000 ave          56 max          56 min
Histogram: 1 0 0 0 0 0 0 0 0 0
Nghost:        1067.00 ave        1067 max        1067 min
Histogram: 1 0 0 0 0 0 0 0 0 0
Neighs:        3888.00 ave        3888 max        3888 min
Histogram: 1 0 0 0 0 0 0 0 0 0
FullNghs:      7776.00 ave        7776 max        7776 min
Histogram: 1 0 0 0 0 0 0 0 0 0

Total # of neighbors = 7776
Ave neighs/atom = 138.85714
Neighbor list builds = 0
Dangerous builds = 0


##---------------DEFORMATION--------------------------------------
unfix              1
reset_timestep     0
fix		1 all npt temp 300 300 1 y 0 0 1 z 0 0 1 drag 1
fix        2 all ave/time 1 100 100 c_2[1] c_2[2]
fix        3 all ave/time 1 100 100 v_Lx v_Ly v_Lz v_Vol
variable   srate equal 5.0e10
variable   srate1 equal "v_srate / 1.0e12"
fix		4 all deform 1 x erate ${srate1} units box remap x
fix		4 all deform 1 x erate 0.05 units box remap x
run            100
Per MPI rank memory allocation (min/avg/max) = 8.968 | 8.968 | 8.968 Mbytes
Step Temp E_pair E_mol TotEng Press Volume 
       0    22.337761   -107.39197            0   -107.23316   -1410.7949    583.80212 
     100    34.066649   -107.47526            0   -107.23307   -2942.6252    583.85942 
Loop time of 0.187484 on 1 procs for 100 steps with 56 atoms

Performance: 0.922 ns/day, 26.039 hours/ns, 533.379 timesteps/s
100.0% CPU use with 1 MPI tasks x 1 OpenMP threads

MPI task timing breakdown:
Section |  min time  |  avg time  |  max time  |%varavg| %total
---------------------------------------------------------------
Pair    | 0.17184    | 0.17184    | 0.17184    |   0.0 | 91.66
Neigh   | 0          | 0          | 0          |   0.0 |  0.00
Comm    | 0          | 0          | 0          |   0.0 |  0.00
Output  | 0          | 0          | 0          |   0.0 |  0.00
Modify  | 0.015641   | 0.015641   | 0.015641   |   0.0 |  8.34
Other   |            | 0          |            |       |  0.00

Nlocal:        56.0000 ave          56 max          56 min
Histogram: 1 0 0 0 0 0 0 0 0 0
Nghost:        1067.00 ave        1067 max        1067 min
Histogram: 1 0 0 0 0 0 0 0 0 0
Neighs:        3504.00 ave        3504 max        3504 min
Histogram: 1 0 0 0 0 0 0 0 0 0
FullNghs:      7008.00 ave        7008 max        7008 min
Histogram: 1 0 0 0 0 0 0 0 0 0

Total # of neighbors = 7008
Ave neighs/atom = 125.14286
Neighbor list builds = 0
Dangerous builds = 0
##---------------THERMO-OUTPUTS--------------------------------------
variable   CorVol equal f_3[4]*v_thickn/(f_3[3])
variable   ConvoFac equal 1/1.0e4
variable   sigmaxx equal f_2[1]*v_ConvoFac/v_CorVol
variable   sigmayy equal f_2[2]*v_ConvoFac/v_CorVol
variable   StrainPerTs equal v_srate1*v_ts
variable   strain equal v_StrainPerTs*step
thermo 	100
thermo_style custom step temp v_strain v_sigmaxx v_sigmayy pe ke lx ly vol


##---------------DEFORMATION--------------------------------------
dump           1 all atom 5000 tensile_testat0point001.lammpstrj
run            500000
Per MPI rank memory allocation (min/avg/max) = 9.718 | 9.718 | 9.718 Mbytes
Step Temp v_strain v_sigmaxx v_sigmayy PotEng KinEng Lx Ly Volume 
     100    34.066649       0.0001   0.22653814   0.21663706   -107.47526    0.2421903      8.35857    8.3577265    583.85942 
     200    45.701296       0.0002   0.40159454    0.3717832   -107.55782   0.32490459    8.3594058     8.357695    583.91341 
     300    55.737296       0.0003    0.5801412   0.53047194   -107.62896   0.39625361    8.3602417     8.357627    583.96229 
     400    62.839306       0.0004   0.74889237    0.6792809   -107.67921   0.44674398    8.3610776    8.3575102    584.00435 
     500    66.008389       0.0005   0.89608481   0.80629443    -107.7015   0.46927396    8.3619134    8.3573333      584.038 
     600    64.723113       0.0006    1.0127698   0.90241006   -107.69214   0.46013654    8.3627493    8.3570874    584.06202 
     700    59.039037       0.0007    1.0938577   0.96239641   -107.65155    0.4197267    8.3635851    8.3567666    584.07555 
     800    49.628133       0.0008    1.1388073   0.98558387   -107.58453   0.35282168     8.364421    8.3563675    584.07813 
     900     37.73759       0.0009    1.1517407   0.97596406   -107.49995   0.26828815    8.3652568    8.3558901    584.06976 
    1000    25.053037        0.001    1.1409032   0.94163833   -107.40978   0.17810975    8.3660927    8.3553365    584.05071 
    1100    13.466846       0.0011    1.1173615   0.89349446   -107.32747  0.095739955    8.3669286    8.3547103    584.02152 
    1200    4.7778387       0.0012    1.0931005   0.84327055    -107.2658  0.033967127    8.3677644    8.3540159    583.98278 
    1300   0.37556823       0.0013    1.0787831   0.80133653   -107.23464 0.0026700302    8.3686003    8.3532575    583.93507 
    1400   0.97907172       0.0014    1.0816577   0.77460075   -107.23908 0.0069605224    8.3694361     8.352438    583.87882 
    1500    6.4956114       0.0015    1.1041038   0.76507097   -107.27848  0.046179302     8.370272    8.3515593    583.81427 
    1600    16.037343       0.0016    1.1431251   0.76940349   -107.34651   0.11401441    8.3711078    8.3506216    583.74147 
    1700    28.091635       0.0017     1.191053   0.77961892   -107.43242   0.19971208    8.3719437    8.3496248    583.66039 
    1800    40.800402       0.0018    1.2371342   0.78474464     -107.523   0.29006262    8.3727796    8.3485683    583.57095 
    1900    52.279944       0.0019    1.2696853   0.77296997   -107.60483   0.37167422    8.3736154    8.3474525    583.47321 
    2000     60.91323        0.002    1.2783096   0.73389345   -107.66641   0.43305091    8.3744513    8.3462798    583.36751 
    2100    65.565775       0.0021    1.2556895    0.6603481   -107.69963   0.46612729    8.3752871    8.3450549     583.2545 
    2200     65.70403       0.0022    1.1987313   0.54956666   -107.70068   0.46711018     8.376123    8.3437855    583.13527 
    2300    61.419075       0.0023     1.108963   0.40360671   -107.67017   0.43664712    8.3769588    8.3424824     583.0113 
    2400    53.372245       0.0024   0.99225223   0.22909598   -107.61278   0.37943973    8.3777947    8.3411586    582.88445 
    2500    42.682781       0.0025   0.85802518  0.036442028   -107.53644   0.30344504    8.3786306    8.3398292    582.75681 
    2600    30.775447       0.0026   0.71814296  -0.16134599   -107.45128   0.21879213    8.3794664    8.3385102    582.63061 
    2700    19.203183       0.0027   0.58558072  -0.35004879   -107.36837   0.13652134    8.3803023    8.3372174    582.50805 
    2800    9.4597584       0.0028   0.47307225   -0.5157285   -107.29835  0.067252336    8.3811381     8.335965    582.39115 
    2900    2.7996089       0.0029   0.39174938  -0.64616385   -107.25018  0.019903282     8.381974     8.334765    582.28155 
    3000  0.084391326        0.003   0.34998393  -0.73212243   -107.23003 0.00059996392    8.3828098     8.333626    582.18046 
    3100    1.6753422       0.0031   0.35247548  -0.76828087    -107.2405  0.011910524    8.3836457    8.3325527    582.08854 
    3200    7.3863844       0.0032   0.39972181  -0.75380821   -107.28029  0.052512081    8.3844816    8.3315457    582.00588 
    3300    16.504844       0.0033    0.4879349  -0.69245652   -107.34436   0.11733802    8.3853174    8.3306016      581.932 
    3400    27.877174       0.0034   0.60943214  -0.59216676   -107.42449   0.19818742    8.3861533    8.3297137    581.86595 
    3500    40.047944       0.0035   0.75343087  -0.46425888   -107.51034   0.28471317    8.3869891    8.3288723    581.80638 
    3600    51.434759       0.0036   0.90719387  -0.32229932   -107.59064   0.36566554     8.387825    8.3280662    581.75175 
    3700    60.519493       0.0037    1.0573727   -0.1806591    -107.6546   0.43025171    8.3886608    8.3272838     581.7004 
    3800    66.037755       0.0038    1.1914396 -0.053018379   -107.69323   0.46948274    8.3894967    8.3265138    581.65079 
    3900    67.150098       0.0039    1.2990845   0.04914764   -107.70055   0.47739073    8.3903326     8.325747     581.6016 
    4000     63.57878        0.004    1.3734697   0.11791305    -107.6746   0.45200113    8.3911684    8.3249763    581.55186 
    4100    55.690517       0.0041    1.4121861   0.14988771   -107.61797   0.39592104    8.3920043    8.3241975    581.50098 
    4200    44.502257       0.0042     1.417752    0.1466842   -107.53791   0.31638025    8.3928401    8.3234096    581.44881 
    4300    31.588247       0.0043    1.3974417   0.11469455   -107.44558   0.22457057     8.393676     8.322614    581.39556 
    4400    18.878456       0.0044    1.3622959  0.064052441   -107.35472   0.13421276    8.3945118    8.3218142     581.3417 
    4500    8.3627611       0.0045    1.3253547  0.006865876   -107.27945  0.059453444    8.3953477    8.3210146    581.28787 
    4600     1.746714       0.0046    1.2993009 -0.045122201   -107.23191  0.012417928    8.3961836    8.3202197    581.23467 
    4700   0.13072256       0.0047    1.2940062 -0.082850306    -107.2199 0.00092934692    8.3970194     8.319433    581.18262 
    4800    3.7914122       0.0048    1.3144497  -0.10188195   -107.24538  0.026954317    8.3978553     8.318657    581.13204 
    4900    12.124026       0.0049    1.3597132  -0.10333898   -107.30405  0.086193436    8.3986911    8.3178923    581.08303 
    5000    23.762026        0.005    1.4231996 -0.093654663   -107.38617   0.16893156     8.399527    8.3171386    581.03555 
    5100    36.841538       0.0051    1.4940253 -0.083226962   -107.47848   0.26191784    8.4003628    8.3163949    580.98946 
    5200    49.341615       0.0052    1.5592815 -0.084250973   -107.56662   0.35078474    8.4011987    8.3156607    580.94468 
    5300    59.421112       0.0053    1.6065239  -0.10827277   -107.63748   0.42244299    8.4020346     8.314937    580.90136 
    5400    65.687333       0.0054    1.6259156  -0.16402365   -107.68116   0.46699148    8.4028704     8.314227    580.85993 
    5500    67.361328       0.0055     1.611749  -0.25586791   -107.69214   0.47889243    8.4037063    8.3135364    580.82121 
    5600    64.334782       0.0056    1.5631148  -0.38307522   -107.66965   0.45737578    8.4045421    8.3128741    580.78644 
    5700    57.133392       0.0057    1.4838209  -0.53987054   -107.61745   0.40617888     8.405378    8.3122516    580.75721 
    5800    46.809551       0.0058    1.3817111  -0.71615146   -107.54305   0.33278352    8.4062138    8.3116822    580.73539 
    5900    34.786201       0.0059    1.2675785  -0.89868514    -107.4566   0.24730581    8.4070497    8.3111803      580.723 
    6000    22.670239        0.006    1.1538816   -1.0725908   -107.36958   0.16116971    8.4078856    8.3107602    580.72202 
    6100     12.05244       0.0061    1.0533336   -1.2229601   -107.29331  0.085684509    8.4087214    8.3104348    580.73427 
    6200    4.3122767       0.0062   0.97752289   -1.3364462   -107.23766  0.030657303    8.4095573    8.3102144     580.7612 
    6300   0.44822822       0.0063   0.93565059   -1.4026476   -107.20971 0.0031865925    8.4103931    8.3101061    580.80378 
    6400   0.95425278       0.0064   0.93353145    -1.415196   -107.21298 0.0067840769     8.411229    8.3101126    580.86242 
    6500    5.7589209       0.0065   0.97294558   -1.3724124   -107.24693  0.040941943    8.4120648    8.3102324    580.93689 
    6600    14.235813       0.0066    1.0514556   -1.2774675   -107.30704   0.10120678    8.4129007    8.3104595    581.02637 
    6700    25.283393       0.0067    1.1626827   -1.1380566   -107.38542   0.17974743    8.4137366     8.310784    581.12947 
    6800    37.462679       0.0068     1.297051  -0.96557598   -107.47178   0.26633372    8.4145724    8.3111929    581.24439 
    6900    49.174429       0.0069    1.4428499   -0.7739881    -107.5547   0.34959616    8.4154083     8.311671    581.36901 
    7000    58.854713        0.007    1.5875352  -0.57833813   -107.62303   0.41841628    8.4162441    8.3122025    581.50111 
    7100    65.169194       0.0071    1.7191116  -0.39319853   -107.66728   0.46330787      8.41708    8.3127715    581.63849 
    7200    67.188833       0.0072    1.8274918  -0.23110833   -107.68087   0.47766611    8.4179158    8.3133639    581.77916 
    7300    64.531041       0.0073    1.9057232   -0.1011759   -107.66111   0.45877105    8.4187517    8.3139676    581.92144 
    7400    57.448286       0.0074    1.9509647 -0.0080432901   -107.60985   0.40841756    8.4195876    8.3145736    582.06406 
    7500    46.843346       0.0075     1.965064  0.048655159   -107.53353   0.33302377    8.4204234    8.3151758    582.20616 
    7600    34.190639       0.0076    1.9545016  0.074129516   -107.44269   0.24307178    8.4212593    8.3157708    582.34729 
    7700      21.3531       0.0077    1.9296059  0.077528786   -107.35059   0.15180576    8.4220951    8.3163575    582.48727 
    7800    10.305265       0.0078    1.9029449  0.070276349   -107.27128  0.073263299     8.422931    8.3169362    582.62616 
    7900    2.8024097       0.0079     1.887111  0.063880382   -107.21721  0.019923193    8.4237668    8.3175075    582.76403 
    8000  0.061335837        0.008    1.8922837  0.067659793     -107.197 0.00043605536    8.4246027    8.3180716    582.90092 
    8100    2.5280449       0.0081      1.92414  0.086821507   -107.21381  0.017972649    8.4254386    8.3186276    583.03669 
    8200    9.7922087       0.0082    1.9826125   0.12135908   -107.26466  0.069615827    8.4262744    8.3191734    583.17104 
    8300    20.671221       0.0083    2.0619149   0.16605639   -107.34113   0.14695807    8.4271103    8.3197056    583.30352 
    8400    33.440321       0.0084    2.1517906   0.21159959   -107.43094   0.23773754    8.4279461    8.3202208    583.43362 
    8500    46.148621       0.0085    2.2395842   0.24650044   -107.52022   0.32808476     8.428782    8.3207154    583.56087 
    8600    56.945931       0.0086    2.3126606   0.25935399   -107.59584   0.40484616    8.4296178    8.3211878      583.685 
    8700    64.355472       0.0087    2.3605457   0.24102281   -107.64733   0.45752287    8.4304537     8.321638    583.80604 
    8800    67.453662       0.0088    2.3764842   0.18624244   -107.66817   0.47954886    8.4312896    8.3220692    583.92443 
    8900    65.947078       0.0089     2.358229  0.094519971    -107.6563   0.46883809    8.4321254    8.3224873      584.041 
    9000    60.158234        0.009    2.3080653 -0.029751513   -107.61407   0.42768341    8.4329613    8.3229012      584.157 
    9100    50.941086       0.0091    2.2322947  -0.17780996   -107.54757   0.36215587    8.4337971    8.3233222      584.274 
    9200    39.547656       0.0092    2.1403069  -0.33755696   -107.46575   0.28115647     8.434633    8.3237627    584.39376 
    9300    27.463198       0.0093    2.0434218  -0.49487964   -107.37916   0.19524434    8.4354688    8.3242357     584.5181 
    9400    16.225085       0.0094     1.953631   -0.6351354   -107.29876   0.11534913    8.4363047    8.3247534    584.64873 
    9500    7.2405107       0.0095     1.882325  -0.74466066   -107.23453   0.05147502    8.4371406    8.3253258    584.78707 
    9600    1.6205083       0.0096    1.8391105  -0.81210909   -107.19435  0.011520693    8.4379764    8.3259601    584.93413 
    9700  0.048594978       0.0097    1.8307901  -0.82960678   -107.18302 0.00034547667    8.4388123    8.3266596    585.09037 
    9800    2.7006699       0.0098    1.8606649  -0.79349732   -107.20173  0.019199894    8.4396481    8.3274234    585.25567 
    9900    9.2267748       0.0099    1.9282106  -0.70468932   -107.24791  0.065595983     8.440484    8.3282461     585.4293 
   10000    18.796954         0.01     2.029166  -0.56853171   -107.31559   0.13363333    8.4413198    8.3291185    585.60994 
   10100    30.204232       0.0101    2.1559937  -0.39430044   -107.39612   0.21473119    8.4421557    8.3300277    585.79579 
   10200    42.010355       0.0102    2.2987118  -0.19423719   -107.47923   0.29866455    8.4429915    8.3309581    585.98468 
   10300    52.715943       0.0103    2.4459812   0.01764461   -107.55423   0.37477387    8.4438274     8.331893    586.17422 
   10400    60.936715       0.0104    2.5862628   0.22695691    -107.6113   0.43321787    8.4446633    8.3328149    586.36198 
   10500    65.569795       0.0105    2.7090548   0.42035167   -107.64265   0.46615587    8.4454991    8.3337074    586.54565 
   10600    65.936764       0.0106     2.806035   0.58687954   -107.64351   0.46876476     8.446335    8.3345557    586.72313 
   10700    61.890443       0.0107    2.8720543    0.7191235   -107.61292   0.43999822    8.4471708    8.3353478    586.89273 
   10800    53.870259       0.0108    2.9058779   0.81397889   -107.55407   0.38298026    8.4480067    8.3360745    587.05315 
   10900    42.888676       0.0109     2.910515   0.87293204   -107.47423   0.30490881    8.4488425    8.3367296    587.20352 
   11000    30.433325        0.011    2.8929993   0.90171744   -107.38401   0.21635988    8.4496784    8.3373099    587.34336 
   11100    18.280029       0.0111    2.8634828   0.90930094   -107.29607   0.12995836    8.4505143     8.337814     587.4725 
   11200    8.2318973       0.0112    2.8336916   0.90626012   -107.22321  0.058523093    8.4513501    8.3382421    587.59094 
   11300    1.8242114       0.0113    2.8148985   0.90276674   -107.17635  0.012968881     8.452186    8.3385947    587.69876 
   11400  0.053871106       0.0114    2.8158158   0.90663163   -107.16253 0.00038298629    8.4530218    8.3388721    587.79598 
   11500    3.1961158       0.0115    2.8408337   0.92170805   -107.18369  0.022722172    8.4538577    8.3390736    587.88253 
   11600     10.75438       0.0116     2.889124   0.94711094   -107.23625  0.076456197    8.4546935     8.339198    587.95819 
   11700    21.556042       0.0117    2.9548119    0.9773797   -107.31186   0.15324854    8.4555294    8.3392432    588.02268 
   11800    33.968629       0.0118    3.0282219    1.0036011   -107.39891   0.24149344    8.4563653    8.3392069     588.0757 
   11900    46.182945       0.0119    3.0977734    1.0151504   -107.48453   0.32832878    8.4572011    8.3390879    588.11704 
   12000    56.499692        0.012    3.1521326    1.0017031   -107.55666   0.40167371     8.458037    8.3388865    588.14676 
   12100    63.566419       0.0121    3.1820937   0.95513532   -107.60567   0.45191325    8.4588728    8.3386054    588.16522 
   12200     66.53391       0.0122    3.1818908   0.87092123   -107.62556   0.47301005    8.4597087    8.3382502    588.17322 
   12300    65.124563       0.0123    3.1498729    0.7489256   -107.61434   0.46299058    8.4605445    8.3378295    588.17199 
   12400    59.622809       0.0124     3.088485   0.59351137   -107.57403   0.42387691    8.4613804    8.3373551    588.16316 
   12500    50.804497       0.0125    3.0037905    0.4131071   -107.51015   0.36118482    8.4622163    8.3368409     588.1487 
   12600    39.822562       0.0126    2.9046443   0.21930783    -107.4309   0.28311085    8.4630521    8.3363024    588.13082 
   12700    28.062743       0.0127    2.8016744  0.025706987   -107.34612   0.19950668     8.463888    8.3357558    588.11177 
   12800    16.981576       0.0128    2.7061352  -0.15345933   -107.26618   0.12072725    8.4647238    8.3352163    588.09373 
   12900    7.9393115       0.0129    2.6287779  -0.30466127   -107.20075  0.056443011    8.4655597    8.3346977    588.07861 
   13000    2.0429372        0.013    2.5787358  -0.41640783   -107.15771   0.01452387    8.4663955    8.3342106    588.06793 
   13100  0.016379031       0.0131    2.5625743  -0.48028103   -107.14219 0.00011644358    8.4672314    8.3337622    588.06271 
   13200    2.1140916       0.0132    2.5835826  -0.49179259     -107.156  0.015029728    8.4680673    8.3333556    588.06337 
   13300     8.089801       0.0133    2.6414299  -0.45077819   -107.19736  0.057512887    8.4689031    8.3329893    588.06971 
   13400    17.224992       0.0134    2.7321881  -0.36140797   -107.26115   0.12245778     8.469739    8.3326578    588.08096 
   13500    28.413161       0.0135    2.8486987  -0.23181909   -107.33948   0.20199791    8.4705748    8.3323521    588.09584 
   13600    40.288548       0.0136    2.9813487 -0.073291951   -107.42263    0.2864237    8.4714107    8.3320602    588.11266 
   13700    51.383362       0.0137    3.1190396   0.10080269   -107.50015   0.36530015    8.4722465    8.3317682    588.12948 
   13800    60.296503       0.0138    3.2503033   0.27631065   -107.56211   0.42866641    8.4730824     8.331462    588.14426 
   13900    65.858388       0.0139    3.3644659   0.43966354   -107.60021   0.46820756    8.4739183    8.3311274    588.15504 
   14000    67.278829        0.014    3.4527958    0.5792603   -107.60888   0.47830592    8.4747541    8.3307521    588.16006 
   14100    64.265232       0.0141    3.5094992   0.68665458   -107.58608   0.45688133      8.47559     8.330326     588.1579 
   14200    57.096505       0.0142    3.5325464   0.75747802   -107.53382   0.40591664    8.4764258     8.329842    588.14756 
   14300    46.634507       0.0143    3.5241307   0.79188792   -107.45825   0.33153907    8.4772617     8.329296    588.12844 
   14400     34.25512       0.0144    3.4906476   0.79444818   -107.36918    0.2435302    8.4780975    8.3286865    588.10036 
   14500    21.688522       0.0145    3.4420124   0.77330994    -107.2789   0.15419038    8.4789334    8.3280147    588.06346 
   14600    10.776329       0.0146    3.3902786   0.73875809   -107.20049   0.07661224    8.4797693    8.3272831     588.0181 
   14700    3.1777514       0.0147    3.3477273   0.70130365   -107.14571  0.022591613    8.4806051    8.3264948    587.96473 
   14800  0.080093046       0.0148    3.3246107   0.66959601   -107.12298 0.00056940613     8.481441     8.325653    587.90378 
   14900    1.9787814       0.0149    3.3272087   0.64872222   -107.13579  0.014067766    8.4822768    8.3247599    587.83559 
   15000    8.5817363        0.015    3.3565152   0.63913138   -107.18203  0.061010207    8.4831127     8.323817    587.76035 
   15100    18.863269       0.0151    3.4080555   0.63653812   -107.25437   0.13410479    8.4839485     8.322825    587.67816 
   15200    31.253511       0.0152    3.4728526   0.63277549   -107.34164   0.22219084    8.4847844    8.3217842    587.58907 
   15300    43.915607       0.0153    3.5392456   0.61740313   -107.43075   0.31220957    8.4856203    8.3206955    587.49321 
   15400    55.046482       0.0154    3.5951331   0.57974635   -107.50886   0.39134239    8.4864561    8.3195613    587.39091 
   15500    63.141306       0.0155     3.630043   0.51088281   -107.56527   0.44889099     8.487292    8.3183859    587.28279 
   15600    67.181715       0.0156    3.6367378   0.40527471   -107.59272    0.4776155    8.4881278    8.3171767    587.16988 
   15700    66.733085       0.0157    3.6120634   0.26176639   -107.58811   0.47442605    8.4889637     8.315944    587.05365 
   15800    61.956124       0.0158    3.5571412   0.08392116   -107.55257   0.44046517    8.4897995    8.3147011    586.93596 
   15900    53.548946       0.0159    3.4769736  -0.12030033   -107.49107   0.38069595    8.4906354    8.3134636    586.81904 
   16000    42.637301        0.016    3.3796914  -0.33934506   -107.41162    0.3031217    8.4914713     8.312249    586.70533 
   16100    30.628614       0.0161    3.2755271  -0.55926898   -107.32428   0.21774825    8.4923071    8.3110751    586.59737 
   16200    19.042957       0.0162    3.1757005  -0.76512724   -107.23988   0.13538225     8.493143    8.3099594     586.4976 
   16300      9.33476       0.0163    3.0912343  -0.94245307   -107.16881  0.066363684    8.4939788    8.3089174    586.40823 
   16400    2.7214343       0.0164    3.0317888   -1.0786829   -107.11978  0.019347514    8.4948147    8.3079617    586.33103 
   16500  0.037540368       0.0165    3.0045915   -1.1643597   -107.09874 0.00026688604    8.4956505    8.3071011    586.26724 
   16600    1.6326057       0.0166    3.0136682   -1.1940406    -107.1082  0.011606697    8.4964864      8.30634     586.2175 
   16700    7.3267684       0.0167    3.0593335   -1.1668461   -107.14689  0.052088253    8.4973223    8.3056783    586.18176 
   16800    16.430668       0.0168    3.1381363   -1.0865408   -107.20988   0.11681068    8.4981581    8.3051112    586.15937 
   16900    27.826989       0.0169    3.2432534  -0.96117559   -107.28919   0.19783063     8.498994      8.30463    586.14909 
   17000     40.10249        0.017    3.3651827  -0.80230973   -107.37476   0.28510095    8.4998298    8.3042227    586.14923 
   17100    51.713883       0.0171    3.4928018   -0.6239037   -107.45557   0.36764992    8.5006657    8.3038751    586.15781 
   17200    61.168968       0.0172    3.6145052  -0.44094021   -107.52102   0.43486903    8.5015015    8.3035724     586.1727 
   17300    67.205922       0.0173    3.7194515  -0.26793026   -107.56213    0.4777876    8.5023374    8.3032996    586.19182 
   17400    68.955686       0.0174    3.7987251  -0.11741642   -107.57274   0.49022721    8.5031733    8.3030435    586.21328 
   17500    66.073218       0.0175    3.8464352 0.0013623776   -107.55044   0.46973486    8.5040091    8.3027928    586.23551 
   17600    58.820983       0.0176    3.8605964  0.083466658   -107.49711   0.41817648     8.504845    8.3025394    586.25733 
   17700     48.08497       0.0177    3.8436951   0.12878036   -107.41909   0.34185086    8.5056808    8.3022779    586.27803 
   17800    35.303177       0.0178    3.8026985   0.14186106   -107.32663   0.25098116    8.5065167    8.3020062    586.29725 
   17900    22.295464       0.0179    3.7483878   0.13108928   -107.23266   0.15850532    8.5073525     8.301724    586.31501 
   18000    11.002931        0.018     3.693877   0.10709243   -107.15097  0.078223227    8.5081884    8.3014329     586.3315 
   18100    3.1724274       0.0181    3.6525011  0.080735029   -107.09398  0.022553764    8.5090243    8.3011351    586.34703 
   18200  0.046786067       0.0182    3.6353506  0.060957444   -107.07047 0.00033261656    8.5098601    8.3008325    586.36188 
   18300    2.1314563       0.0183    3.6490187  0.052966465   -107.08399  0.015153179     8.510696    8.3005263     586.3762 
   18400    9.0965783       0.0184    3.6942504  0.057189951   -107.13217  0.064670377    8.5115318    8.3002166    586.39002 
   18500    19.840237       0.0185    3.7657915  0.069176118   -107.20713   0.14105036    8.5123677    8.2999027    586.40325 
   18600    32.696312       0.0186    3.8534998  0.080484575     -107.297   0.23244815    8.5132035    8.2995836    586.41575 
   18700    45.733752       0.0187    3.9444774   0.08038662   -107.38804   0.32513533    8.5140394    8.2992589    586.42744 
   18800    57.077136       0.0188    4.0254727  0.058008562   -107.46692   0.40577894    8.5148753    8.2989294    586.43844 
   18900    65.184033       0.0189    4.0851405 0.0044165222   -107.52269   0.46341337    8.5157111    8.2985983    586.44921 
   19000     69.03741        0.019    4.1156207 -0.085696695   -107.54814   0.49080821     8.516547    8.2982713    586.46055 
   19100    68.239036       0.0191    4.1133872  -0.21299319   -107.54047   0.48513232    8.5173828    8.2979574    586.47374 
   19200    63.011655       0.0192    4.0793545  -0.37321913   -107.50131   0.44796926    8.5182187    8.2976683    586.49042 
   19300     54.12857       0.0193    4.0184145  -0.55760984   -107.43621   0.38481667    8.5190545    8.2974181     586.5126 
   19400    42.790645       0.0194     3.938616  -0.75381655   -107.35374   0.30421187    8.5198904    8.2972223    586.54246 
   19500    30.468101       0.0195    3.8501248   -0.9472234   -107.26441   0.21660711    8.5207263    8.2970967    586.58225 
   19600    18.721639       0.0196    3.7640881   -1.1224326   -107.17935    0.1330979    8.5215621    8.2970563    586.63408 
   19700    9.0179706       0.0197    3.6914293   -1.2648377   -107.10902   0.06411153     8.522398     8.297114    586.69978 
   19800    2.5570647       0.0198    3.6417127   -1.3620217   -107.06195  0.018178961    8.5232338    8.2972793    586.78071 
   19900   0.12999155       0.0199    3.6221111   -1.4050078   -107.04373 0.00092414995    8.5240697    8.2975578    586.87764 
   20000    2.0252121         0.02    3.6366151   -1.3890722   -107.05638  0.014397856    8.5249055    8.2979502     586.9907 
   20100    7.9958725       0.0201    3.6855989   -1.3142103   -107.09806   0.05684512    8.5257414    8.2984526    587.11934 
   20200    17.292414       0.0202    3.7658092    -1.185104   -107.16335   0.12293709    8.5265772    8.2990563    587.26234 
   20300    28.755318       0.0203    3.8707324   -1.0106766   -107.24393   0.20443041    8.5274131    8.2997485    587.41789 
   20400    40.954906       0.0204    3.9913544  -0.80323566   -107.32953   0.29116104     8.528249    8.3005134    587.58376 
   20500    52.359971       0.0205    4.1171709   -0.5772737   -107.40924   0.37224316    8.5290848     8.301333     587.7574 
   20600    61.516564       0.0206    4.2372737  -0.34808889    -107.4727    0.4373402    8.5299207    8.3021884    587.93614 
   20700    67.220014       0.0207     4.341532   -0.1302958   -107.51135   0.47788778    8.5307565     8.303061    588.11737 
   20800    68.666416       0.0208    4.4216763  0.063631294   -107.51954    0.4881707    8.5315924    8.3039339    588.29867 
   20900    65.570475       0.0209    4.4722949   0.22459279    -107.4953    0.4661607    8.5324282    8.3047925    588.47798 
   21000    58.235361        0.021    4.4916694   0.34778015   -107.44086   0.41401312    8.5332641    8.3056251    588.65364 
   21100    47.557216       0.0211     4.482264   0.43306277   -107.36268   0.33809889       8.5341    8.3064232    588.82445 
   21200    34.947965       0.0212    4.4507603    0.4847866   -107.27084   0.24845585    8.5349358    8.3071813    588.98961 
   21300    22.168002       0.0213    4.4073995   0.51086283   -107.17788   0.15759916    8.5357717    8.3078962    589.14868 
   21400    11.078625       0.0214    4.3646341   0.52128142   -107.09706  0.078761359    8.5366075    8.3085667    589.30148 
   21500    3.3479792       0.0215     4.335108   0.52617643   -107.04022  0.023801815    8.5374434    8.3091922    589.44793 
   21600   0.16548127       0.0216    4.3292726   0.53392567   -107.01576 0.0011764573    8.5382792    8.3097725    589.58798 
   21700    2.0276257       0.0217    4.3532681   0.54951907   -107.02718  0.014415016    8.5391151    8.3103066     589.7215 
   21800    8.6468549       0.0218    4.4077028   0.57354129   -107.07239  0.061473155     8.539951     8.310793    589.84827 
   21900     19.00693       0.0219    4.4875239   0.60205157   -107.14411   0.13512612    8.5407868    8.3112298    589.96801 
   22000    31.549972        0.022    4.5830623   0.62741295   -107.23126   0.22429847    8.5416227    8.3116147     590.0804 
   22100    44.448825       0.0221     4.681965   0.63977569   -107.32084   0.31600039    8.5424585    8.3119464    590.18524 
   22200    55.902584       0.0222    4.7715492   0.62896182   -107.40005   0.39742869    8.5432944    8.3122247    590.28252 
   22300    64.396857       0.0223    4.8408798   0.58643843   -107.45817   0.45781709    8.5441302    8.3124521    590.37258 
   22400    68.889629       0.0224    4.8822001   0.50690805   -107.48782   0.48975759    8.5449661    8.3126337    590.45613 
   22500    68.908119       0.0225    4.8917613   0.38934662   -107.48567   0.48988904     8.545802    8.3127777    590.53435 
   22600    64.562232       0.0226    4.8699153   0.23733918   -107.45254   0.45899279    8.5466378    8.3128954    590.60883 
   22700    56.490477       0.0227    4.8207497  0.058809674     -107.393    0.4016082    8.5474737    8.3130005    590.68152 
   22800    45.756432       0.0228    4.7513765  -0.13477966   -107.31464   0.32529657    8.5483095    8.3131084    590.75462 
   22900    33.710772       0.0229    4.6710086  -0.32956921   -107.22709   0.23966026    8.5491454    8.3132352     590.8304 
   23000    21.831621        0.023     4.589969  -0.51066848   -107.14087   0.15520772    8.5499812    8.3133964    590.91108 
   23100    11.555554       0.0231    4.5186069  -0.66356408   -107.06621  0.082151992    8.5508171    8.3136057    590.99862 
   23200    4.1138622       0.0232     4.466284  -0.77551851   -107.01184  0.029246714     8.551653    8.3138741    591.09455 
   23300    0.3910487       0.0233    4.4403792  -0.83671515   -106.98401 0.0027800857    8.5524888    8.3142086    591.19989 
   23400   0.82244549       0.0234    4.4455389  -0.84118775   -106.98579 0.0058470183    8.5533247    8.3146117    591.31501 
   23500    5.3446086       0.0235    4.4831804  -0.78735907   -107.01664  0.037996468    8.5541605    8.3150813     591.4396 
   23600    13.405204       0.0236    4.5513633  -0.67815022   -107.07257  0.095301722    8.5549964    8.3156105    591.57267 
   23700    24.030618       0.0237    4.6450104  -0.52072826   -107.14658   0.17084106    8.5558322     8.316188    591.71266 
   23800    35.941399       0.0238    4.7564765  -0.32579965   -107.22952   0.25551848    8.5566681    8.3167993    591.85746 
   23900    47.700043       0.0239    4.8763529  -0.10664471   -107.31114    0.3391143     8.557504     8.317427    592.00463 
   24000    57.873645        0.024     4.994477   0.12212391   -107.38124   0.41144156    8.5583398    8.3180526    592.15152 
   24100    65.195424       0.0241    5.1009151   0.34590015   -107.43085   0.46349434    8.5591757    8.3186572    592.29545 
   24200    68.711918       0.0242    5.1870042   0.55145332   -107.45325   0.48849419    8.5600115    8.3192232    592.43391 
   24300    67.905026       0.0243    5.2462581   0.72817446   -107.44482   0.48275774    8.5608474    8.3197348    592.56463 
   24400    62.777769       0.0244    5.2752002    0.8690821   -107.40568   0.44630649    8.5616832    8.3201789    592.68575 
   24500    53.890231       0.0245    5.2739888   0.97144559   -107.33988   0.38312225    8.5625191    8.3205456    592.79586 
   24600    42.330288       0.0246    5.2466924    1.0368964   -107.25522   0.30093906     8.563355    8.3208282      592.894 
   24700     29.60661       0.0247    5.2010987    1.0709487   -107.16247   0.21048251    8.5641908    8.3210227     592.9796 
   24800    17.462205       0.0248    5.1479167     1.081908   -107.07402    0.1241442    8.5650267    8.3211276    593.05242 
   24900    7.6254884       0.0249    5.0993108    1.0792801   -107.00216  0.054211946    8.5658625    8.3211428    593.11247 
   25000    1.5375331        0.025    5.0668911    1.0719791   -106.95711  0.010930796    8.5666984     8.321069    593.15982 
   25100   0.10837729       0.0251    5.0594144    1.0667224   -106.94528 0.00077048752    8.5675342    8.3209069    593.19458 
   25200    3.5560567       0.0252    5.0811327    1.0666877    -106.9682  0.025281103    8.5683701    8.3206571    593.21683 
   25300    11.367338       0.0253    5.1309763     1.070857   -107.02217  0.080813905     8.569206    8.3203195    593.22656 
   25400    22.390019       0.0254    5.2027617    1.0741955   -107.09895   0.15917754    8.5700418    8.3198941    593.22376 
   25500    35.033546       0.0255    5.2864248    1.0687069   -107.18723   0.24906427    8.5708777    8.3193812    593.20848 
   25600    47.530811       0.0256    5.3699039    1.0448981   -107.27441   0.33791118    8.5717135    8.3187823    593.18091 
   25700    58.206349       0.0257    5.4414861   0.99352313   -107.34857   0.41380686    8.5725494    8.3181006    593.14152 
   25800    65.702675       0.0258    5.4915873   0.90730656   -107.40007   0.46710055    8.5733852     8.317342    593.09116 
   25900    69.135183       0.0259    5.5139374   0.78233518   -107.42258   0.49150331    8.5742211    8.3165155    593.03111 
   26000    68.166863        0.026    5.5061066   0.61890693   -107.41372   0.48461922     8.575057    8.3156332    592.96309 
   26100    63.010139       0.0261     5.469477   0.42173612   -107.37498   0.44795849    8.5758928    8.3147103    592.88927 
   26200    54.369911       0.0262    5.4087846   0.19962323   -107.31137   0.38653244    8.5767287    8.3137643    592.81213 
   26300    43.342644       0.0263    5.3313881 -0.035360623   -107.23069   0.30813621    8.5775645    8.3128141     592.7344 
   26400    31.283524       0.0264    5.2464269  -0.26899205   -107.14259    0.2224042    8.5784004    8.3118794    592.65885 
   26500    19.652334       0.0265    5.1638332  -0.48623022   -107.05749   0.13971449    8.5792362    8.3109786    592.58814 
   26600    9.8495382       0.0266    5.0933587  -0.67258647   -106.98537    0.0700234    8.5800721    8.3101286    592.52465 
   26700    3.0569834       0.0267    5.0435791  -0.81546897   -106.93467  0.021733036     8.580908    8.3093427     592.4703 
   26800   0.10030854       0.0268     5.020984  -0.90530367   -106.91128 0.00071312434    8.5817438    8.3086306    592.42645 
   26900    1.3502677       0.0269    5.0292636   -0.9364502   -106.91784 0.0095994693    8.5825797    8.3079969    592.39379 
   27000    6.6766977        0.027    5.0688995  -0.90768213   -106.95343    0.0474667    8.5834155    8.3074416    592.37229 
   27100    15.461972       0.0271    5.1370819  -0.82232553   -107.01362   0.10992392    8.5842514    8.3069598    592.36125 
   27200    26.672202       0.0272    5.2280015  -0.68794037   -107.09105   0.18962089    8.5850872    8.3065421    592.35936 
   27300    38.976341       0.0273    5.3334525  -0.51567686   -107.17621   0.27709481    8.5859231    8.3061756    592.36476 
   27400    50.897723       0.0274    5.4437145  -0.31920299   -107.25861   0.36184759     8.586759    8.3058449    592.37526 
   27500    60.980802       0.0275    5.5484946   -0.1134816   -107.32788    0.4335313    8.5875948    8.3055332    592.38846 
   27600    67.957002       0.0276    5.6379988  0.086655874   -107.37502   0.48312726    8.5884307    8.3052237    592.40195 
   27700    70.896291       0.0277    5.7038933   0.26790571   -107.39346   0.50402357    8.5892665    8.3049003    592.41347 
   27800    69.332814       0.0278    5.7402687   0.41979727   -107.37993   0.49290833    8.5901024    8.3045494    592.42106 
   27900    63.351607       0.0279    5.7444536   0.53570418   -107.33506   0.45038609    8.5909382      8.30416    592.42313 
   28000    53.620759        0.028    5.7176321   0.61345787   -107.26366   0.38120649    8.5917741     8.303724    592.41857 
   28100    41.351491       0.0281    5.6651005   0.65538416   -107.17436   0.29398049      8.59261    8.3032367    592.40667 
   28200    28.173114       0.0282    5.5960277   0.66769097   -107.07874   0.20029135    8.5934458     8.302696    592.38713 
   28300    15.923156       0.0283    5.5226072   0.65914534   -106.98988   0.11320262    8.5942817    8.3021019    592.35998 
   28400    6.3760164       0.0284    5.4583172   0.63941867   -106.92034  0.045329064    8.5951175    8.3014558    592.32538 
   28500   0.95482534       0.0285    5.4153675   0.61732991   -106.88022 0.0067881474    8.5959534    8.3007596    592.28362 
   28600    0.4837001       0.0286    5.4025142   0.59913127   -106.87534  0.003438773    8.5967892    8.3000151    592.23496 
   28700    5.0377739       0.0287    5.4233782   0.58716274   -106.90617  0.035815086    8.5976251    8.2992236     592.1796 
   28800    13.928616       0.0288    5.4757985   0.57939583   -106.96779  0.099022823     8.598461    8.2983862    592.11766 
   28900    25.828749       0.0289    5.5522411   0.56978167   -107.05071   0.18362453    8.5992968    8.2975037    592.04927 
   29000    39.003884        0.029    5.6412729   0.54949245   -107.14258   0.27729062    8.6001327    8.2965773    591.97461 
   29100    51.597899       0.0291    5.7296544    0.5086409   -107.23019   0.36682536    8.6009685    8.2956097    591.89405 
   29200    61.911716       0.0292    5.8047532   0.43812135   -107.30142   0.44014945    8.6018044    8.2946055    591.80828 
   29300    68.629731       0.0293     5.856733   0.33119801   -107.34693   0.48790989    8.6026402    8.2935722    591.71833 
   29400      70.9657       0.0294    5.8796014   0.18488965   -107.36111   0.50451702    8.6034761    8.2925203    591.62572 
   29500     68.72235       0.0295    5.8715367 0.00076883647   -107.34257   0.48856835     8.604312    8.2914635     591.5324 
   29600    62.275183       0.0296    5.8346782  -0.21495687   -107.29399   0.44273346    8.6051478    8.2904184    591.44074 
   29700    52.496455       0.0297    5.7745413  -0.45193401    -107.2216   0.37321347    8.6059837    8.2894036    591.35339 
   29800    40.635066       0.0298    5.6991632  -0.69664132   -107.13432    0.2888872    8.6068195    8.2884391     591.2732 
   29900    28.165404       0.0299    5.6181832  -0.93368161   -107.04269   0.20023653    8.6076554    8.2875445    591.20298 
   30000    16.617244         0.03    5.5417915   -1.1472567   -106.95764    0.1181371    8.6084912    8.2867384    591.14538 
   30100    7.4004588       0.0301    5.4797191   -1.3226352   -106.88926  0.052612141    8.6093271    8.2860366    591.10265 
   30200    1.6412621       0.0302    5.4401752   -1.4475538    -106.8456  0.011668238    8.6101629    8.2854513    591.07652 
   30300  0.048698312       0.0303    5.4289778    -1.513304   -106.83172 0.0003462113    8.6109988    8.2849901    591.06809 
   30400    2.8287447       0.0304    5.4488667   -1.5155832   -106.84909  0.020110418    8.6118347    8.2846554     591.0777 
   30500     9.658197       0.0305    5.4991859   -1.4548538   -106.89536  0.068663097    8.6126705    8.2844445    591.10498 
   30600     19.72231       0.0306    5.5759538   -1.3363041   -106.96471   0.14021198    8.6135064    8.2843497    591.14881 
   30700    31.810819       0.0307    5.6722798   -1.1694119   -107.04846   0.22615291    8.6143422    8.2843588    591.20749 
   30800    44.459206       0.0308     5.779133  -0.96701996   -107.13613   0.31607419    8.6151781    8.2844564    591.27878 
   30900    56.117489       0.0309    5.8863212  -0.74418535   -107.21668   0.39895651    8.6160139    8.2846246    591.36016 
   31000      65.3281        0.031    5.9835003  -0.51673646    -107.2797   0.46443758    8.6168498    8.2848446    591.44894 
   31100    70.896641       0.0311    6.0612634  -0.29976851   -107.31671   0.50402606    8.6176857    8.2850978    591.54246 
   31200    72.041823       0.0312    6.1121333   -0.1061722    -107.3222   0.51216751    8.6185215    8.2853671     591.6383 
   31300    68.511699       0.0313    6.1315014  0.054632558   -107.29441   0.48707077    8.6193574    8.2856378    591.73435 
   31400    60.651309       0.0314    6.1184195    0.1775852   -107.23586   0.43118883    8.6201932    8.2858982    591.82892 
   31500    49.404312       0.0315    6.0761475   0.26236483   -107.15329   0.35123047    8.6210291    8.2861396    591.92081 
   31600    36.231548       0.0316    6.0122727   0.31307009   -107.05714   0.25758123    8.6218649    8.2863566     592.0092 
   31700    22.938732       0.0317    5.9383828   0.33715413   -106.96026   0.16307851    8.6227008    8.2865462    592.09368 
   31800    11.426399       0.0318    5.8683827   0.34403966   -106.87616  0.081233786    8.6235367     8.286707    592.17407 
   31900    3.3952812       0.0319    5.8160375   0.34343707    -106.8169    0.0241381    8.6243725    8.2868391    592.25034 
   32000  0.059508121        0.032    5.7926343   0.34343173   -106.79108 0.00042306156    8.6252084    8.2869425    592.32252 
   32100    1.9301639       0.0321    5.8048425   0.34880538   -106.80228   0.01372213    8.6260442     8.287017    592.39058 
   32200    8.7220534       0.0322    5.8535009   0.36006782   -106.84843  0.062007764    8.6268801    8.2870621    592.45443 
   32300    19.407274       0.0323    5.9334639   0.37333663   -106.92218   0.13797229    8.6277159    8.2870768    592.51394 
   32400    32.401693       0.0324    6.0345708   0.38112042   -107.01224   0.23035362    8.6285518    8.2870603    592.56897 
   32500    45.837584       0.0325    6.1435656   0.37384946   -107.10531    0.3258735    8.6293877    8.2870125    592.61954 
   32600    57.860642       0.0326    6.2464465    0.3417854   -107.18822   0.41134913    8.6302235    8.2869352    592.66588 
   32700    66.894534       0.0327     6.330831   0.27680096   -107.24978   0.47557385    8.6310594    8.2868323    592.70857 
   32800    71.835473       0.0328    6.3880061   0.17378748   -107.28217    0.5107005    8.6318952    8.2867109     592.7486 
   32900    72.157976       0.0329    6.4135283  0.031838999   -107.28168   0.51299327    8.6327311    8.2865812    592.78744 
   33000    67.935021        0.033    6.4071784  -0.14523795   -107.24888   0.48297099    8.6335669    8.2864564    592.82697 
   33100    59.788266       0.0331    6.3725094  -0.34913819   -107.18821    0.4250532    8.6344028    8.2863522    592.86946 
   33200    48.786068       0.0332    6.3161084  -0.56781392   -107.10734   0.34683518    8.6352387    8.2862862    592.91742 
   33300    36.304906       0.0333    6.2467141  -0.78665314   -107.01608   0.25810276    8.6360745    8.2862765    592.97342 
   33400    23.866911       0.0334    6.1742405  -0.98988257   -106.92531   0.16967722    8.6369104    8.2863405    593.03997 
   33500     12.96639       0.0335    6.1087719   -1.1620625   -106.84567  0.092182059    8.6377462    8.2864936    593.11927 
   33600    4.9001004       0.0336    6.0595369   -1.2895487    -106.7864  0.034836323    8.6385821     8.286748    593.21309 
   33700   0.61882888       0.0337     6.033972   -1.3617035   -106.75423 0.0043994451    8.6394179    8.2871119     593.3226 
   33800   0.61781983       0.0338    6.0369213     -1.37188   -106.75265 0.0043922714    8.6402538    8.2875885    593.44826 
   33900    4.8806563       0.0339    6.0701038   -1.3179998   -106.78147  0.034698089    8.6410897    8.2881757    593.58978 
   34000     12.88415        0.034    6.1319465   -1.2027068   -106.83686   0.09159739    8.6419255    8.2888664    593.74614 
   34100    23.663095       0.0341    6.2177681   -1.0331411   -106.91187   0.16822823    8.6427614    8.2896484    593.91561 
   34200    35.925311       0.0342     6.320335   -0.8202505   -106.99722    0.2554041    8.6435972    8.2905057    594.09591 
   34300    48.201173       0.0343    6.4306492  -0.57781789   -107.08238   0.34267699    8.6444331    8.2914192    594.28431 
   34400    59.009677       0.0344    6.5388844  -0.32120539    -107.1568   0.41951796    8.6452689     8.292368    594.47781 
   34500    67.024188       0.0345    6.6353689 -0.065956633   -107.21104   0.47649559    8.6461048    8.2933308    594.67335 
   34600    71.224006       0.0346    6.7115381   0.17362882   -107.23789   0.50635339    8.6469407    8.2942869    594.86797 
   34700    71.020641       0.0347    6.7608554   0.38582004   -107.23323   0.50490761    8.6477765    8.2952175    595.05899 
   34800    66.347865       0.0348    6.7796138   0.56250841   -107.19669   0.47168741    8.6486124    8.2961065    595.24406 
   34900    57.702873       0.0349    6.7676466   0.69988748   -107.13187    0.4102275    8.6494482    8.2969409    595.42134 
   35000    46.123677        0.035    6.7287606   0.79857212   -107.04625   0.32790743    8.6502841    8.2977109    595.58941 
   35100    33.089912       0.0351    6.6709747    0.8630303   -106.95041   0.23524637    8.6511199    8.2984099    595.74732 
   35200    20.346325       0.0352    6.6057936   0.90054244   -106.85677   0.14464829    8.6519558    8.2990338    595.89448 
   35300    9.6648254       0.0353    6.5463052    0.9200066   -106.77795   0.06871022    8.6527917    8.2995805    596.03057 
   35400    2.5758799       0.0354    6.5050307   0.93027619    -106.7248  0.018312723    8.6536275     8.300049    596.15544 
   35500   0.11777669       0.0355    6.4918215   0.93846346   -106.70467 0.00083731077    8.6544634    8.3004386    596.26899 
   35600     2.657723       0.0356    6.5120491   0.94851126   -106.72014  0.018894571    8.6552992    8.3007487    596.37114 
   35700    9.8271885       0.0357    6.5656237   0.96042046   -106.76853  0.069864509    8.6561351    8.3009787    596.46179 
   35800     20.58748       0.0358    6.6470297   0.97025983   -106.84242   0.14636274    8.6569709    8.3011278    596.54081 
   35900    33.409243       0.0359    6.7463467   0.97093459   -106.93093    0.2375166    8.6578068    8.3011957    596.60817 
   36000    46.523201        0.036    6.8510531   0.95363782   -107.02146   0.33074776    8.6586427    8.3011833    596.66398 
   36100    58.188161       0.0361    6.9481646   0.90953334   -107.10163   0.41367756    8.6594785    8.3010932    596.70863 
   36200    66.928048       0.0362    7.0263544   0.83139242   -107.16096    0.4758121    8.6603144    8.3009307    596.74287 
   36300    71.707014       0.0363    7.0777985    0.7147962   -107.19209   0.50978725    8.6611502    8.3007041    596.76788 
   36400     72.02628       0.0364    7.0987053   0.55922087   -107.19149     0.512057    8.6619861    8.3004249    596.78532 
   36500    67.944823       0.0365     7.089118   0.36854905   -107.15958   0.48304067    8.6628219    8.3001076    596.79728 
   36600    60.037471       0.0366    7.0524916   0.15089539   -107.10046   0.42682487    8.6636578    8.2997695    596.80623 
   36700    49.305331       0.0367    6.9950574 -0.082071678   -107.02128   0.35052679    8.6644937    8.2994293    596.81488 
   36800    37.051497       0.0368      6.92499  -0.31620235   -106.93132    0.2634105    8.6653295    8.2991065    596.82604 
   36900    24.732629       0.0369     6.851593  -0.53614583   -106.84095   0.17583188    8.6661654    8.2988203    596.84243 
   37000    13.797385        0.037    6.7843459  -0.72675794   -106.76051  0.098089862    8.6670012    8.2985875    596.86652 
   37100    5.5250704       0.0371    6.7320105  -0.87445518   -106.69911  0.039279427    8.6678371    8.2984224    596.90032 
   37200   0.88079792       0.0372    6.7017528  -0.96842035    -106.6636 0.0062618636    8.6686729    8.2983347    596.94527 
   37300    0.4044991       0.0373    6.6983778   -1.0015605   -106.65782 0.0028757087    8.6695088    8.2983297    597.00211 
   37400    4.1485835       0.0374    6.7238359  -0.97112324   -106.68209  0.029493558    8.6703447    8.2984074    597.07084 
   37500    11.673094       0.0375    6.7769961  -0.87893449   -106.73324  0.082987622    8.6711805    8.2985624    597.15071 
   37600    22.098761       0.0376    6.8537822  -0.73123143   -106.80495    0.1571069    8.6720164    8.2987845    597.24024 
   37700    34.210034       0.0377    6.9476277  -0.53808267   -106.88852   0.24320967    8.6728522    8.2990593    597.33737 
   37800    46.593704       0.0378    7.0501554  -0.31251469   -106.97387   0.33124899    8.6736881    8.2993694    597.43957 
   37900    57.796008       0.0379    7.1520533 -0.069354854   -107.05064   0.41088962    8.6745239    8.2996948    597.54401 
   38000    66.481846        0.038    7.2439457   0.17608055   -107.10934   0.47263991    8.6753598    8.3000153    597.64773 
   38100    71.582556       0.0381    7.3173029   0.40935253   -107.14244   0.50890243    8.6761957    8.3003106    597.74786 
   38200    72.421842       0.0382    7.3652703   0.61820044   -107.14517   0.51486918    8.6770315    8.3005625    597.84173 
   38300    68.810086       0.0383    7.3834679    0.7936262   -107.11626   0.48919209    8.6778674    8.3007549    597.92703 
   38400    61.096009       0.0384    7.3706695   0.93065589   -107.05826   0.43435035    8.6787032    8.3008749    598.00191 
   38500    50.161822       0.0385    7.3293528    1.0285857   -106.97751   0.35661584    8.6795391    8.3009127    598.06496 
   38600    37.348042       0.0386    7.2662545    1.0905155   -106.88359   0.26551874    8.6803749    8.3008619    598.11524 
   38700    24.305196       0.0387    7.1918823    1.1225001   -106.78824   0.17279313    8.6812108    8.3007189    598.15221 
   38800    12.782795       0.0388    7.1188485    1.1325665    -106.7039  0.090876825    8.6820467     8.300482    598.17567 
   38900     4.378113       0.0389    7.0599303    1.1292263   -106.64191  0.031125354    8.6828825    8.3001513    598.18559 
   39000    0.2857857        0.039    7.0259962    1.1198213   -106.61072 0.0020317386    8.6837184    8.2997276    598.18209 
   39100    1.0986267       0.0391    7.0241407    1.1091111    -106.6145 0.0078104758    8.6845542    8.2992119    598.16533 
   39200    6.7046816       0.0392    7.0563605    1.0982832   -106.65241  0.047665647    8.6853901    8.2986053    598.13546 
   39300     16.30549       0.0393    7.1192336    1.0847179   -106.71872   0.11592075    8.6862259    8.2979091    598.09266 
   39400    28.551244       0.0394    7.2045366    1.0624882   -106.80381   0.20297959    8.6870618    8.2971251    598.03718 
   39500    41.760741       0.0395    7.3007694    1.0235263   -106.89568   0.29688997    8.6878976    8.2962558    597.96941 
   39600    54.178137       0.0396    7.3951384   0.95919326   -106.98183   0.38516906    8.6887335    8.2953059    597.89001 
   39700    64.217399       0.0397    7.4755961   0.86190872   -107.05094   0.45654127    8.6895694    8.2942823    597.79996 
   39800    70.658072       0.0398    7.5326413   0.72655666   -107.09431      0.50233    8.6904052    8.2931949    597.70071 
   39900    72.774537       0.0399    7.5608257   0.55137368   -107.10675    0.5173766    8.6912411    8.2920567    597.59413 
   40000    70.391733         0.04    7.5588497   0.33868317   -107.08701   0.50043651    8.6920769    8.2908842     597.4826 
   40100    63.872959       0.0401    7.5289645  0.095174965   -107.03765   0.45409254    8.6929128    8.2896965    597.36886 
   40200    54.053987       0.0402    7.4763679  -0.16854384   -106.96462   0.38428644    8.6937486    8.2885147    597.25598 
   40300    42.135831       0.0403    7.4084543  -0.43883376   -106.87649    0.2995566    8.6945845    8.2873613    597.14718 
   40400    29.546831       0.0404    7.3340125  -0.70024303   -106.78346   0.21005752    8.6954204    8.2862584    597.04564 
   40500     17.78397       0.0405    7.2623506  -0.93688208   -106.69623   0.12643172    8.6962562    8.2852267    596.95435 
   40600    8.2457666       0.0406    7.2023778   -1.1338627   -106.62482  0.058621694    8.6970921    8.2842841    596.87589 
   40700    2.0725453       0.0407    7.1617332   -1.2785939   -106.57739  0.014734363    8.6979279    8.2834446    596.81228 
   40800  0.012331778       0.0408    7.1459447   -1.3619613   -106.55931 8.7670411e-05    8.6987638    8.2827176    596.76486 
   40900    2.3301853       0.0409    7.1578376   -1.3790789   -106.57248  0.016566005    8.6995996    8.2821069    596.73421 
   41000    8.7741658        0.041    7.1971781   -1.3297775    -106.6151  0.062378247    8.7004355     8.281611    596.72007 
   41100    18.603225       0.0411    7.2606836   -1.2186246   -106.68188   0.13225606    8.7012714    8.2812228    596.72146 
   41200    30.673121       0.0412    7.3423874   -1.0544957   -106.76464   0.21806466    8.7021072    8.2809307    596.73667 
   41300    43.568187       0.0413    7.4342649  -0.84981844   -106.85327   0.30973966    8.7029431    8.2807189    596.76347 
   41400    55.761899       0.0414    7.5270407  -0.61944289   -106.93688   0.39642851    8.7037789    8.2805691    596.79919 
   41500    65.788025       0.0415    7.6111342  -0.37930022   -107.00502   0.46770733    8.7046148    8.2804615    596.84099 
   41600    72.406216       0.0416    7.6775535  -0.14493534   -107.04888   0.51475809    8.7054506    8.2803761    596.88599 
   41700    74.748905       0.0417    7.7188073  0.069930149   -107.06233   0.53141299    8.7062865    8.2802942    596.93149 
   41800    72.438106       0.0418    7.7297292   0.25468011    -107.0427    0.5149848    8.7071224    8.2801989    596.97506 
   41900     65.65955       0.0419    7.7082738   0.40275499   -106.99137   0.46679396    8.7079582    8.2800765    597.01471 
   42000    55.178487        0.042    7.6562776   0.51203837   -106.91382   0.39228086    8.7087941    8.2799161    597.04889 
   42100    42.280767       0.0421     7.580359    0.5844368   -106.81923   0.30058699    8.7096299    8.2797104    597.07653 
   42200    28.636034       0.0422    7.4912724   0.62530365   -106.71947   0.20358239    8.7104658    8.2794548    597.09695 
   42300    16.087858       0.0423    7.4023406   0.64247755   -106.62767   0.11437353    8.7113016    8.2791468    597.10983 
   42400    6.3906358       0.0424    7.3276426   0.64470836   -106.55626  0.045432998    8.7121375     8.278786    597.11507 
   42500    0.9348152       0.0425    7.2797053   0.63996442   -106.51509 0.0066458892    8.7129734    8.2783725    597.11271 
   42600   0.51430803       0.0426    7.2671132   0.63390474   -106.50978 0.0036563742    8.7138092    8.2779069    597.10283 
   42700    5.1881452       0.0427    7.2931862   0.62863876   -106.54069  0.036884122    8.7146451    8.2773899    597.08551 
   42800     14.27047       0.0428    7.3555135   0.62215527   -106.60289   0.10145317    8.7154809     8.276822    597.06084 
   42900    26.451413       0.0429    7.4464066   0.60875892   -106.68705   0.18805124    8.7163168    8.2762042    597.02896 
   43000    40.018606        0.043    7.5540687   0.58027345   -106.78095   0.28450459    8.7171526    8.2755382    596.99013 
   43100    53.127935       0.0431    7.6645862   0.52772035   -106.87146   0.37770285    8.7179885    8.2748276    596.94484 
   43200    64.069888       0.0432    7.7644557   0.44292194   -106.94641   0.45549257    8.7188244    8.2740782    596.89394 
   43300    71.488026       0.0433      7.84248    0.3201033   -106.99615   0.50823039    8.7196602    8.2732986    596.83868 
   43400    74.526121       0.0434    7.8911915   0.15703142   -107.01459   0.52982915    8.7204961    8.2725008    596.78078 
   43500    72.899975       0.0435    7.9078719 -0.044496641   -106.99971   0.51826837    8.7213319    8.2717002    596.72246 
   43600    66.896311       0.0436    7.8941203  -0.27832887   -106.95359   0.47558648    8.7221678    8.2709148    596.66633 
   43700    57.309707       0.0437    7.8548029  -0.53409944   -106.88189   0.40743235    8.7230036    8.2701651    596.61534 
   43800    45.333778       0.0438    7.7972139  -0.79810114   -106.79316   0.32229179    8.7238395    8.2694727     596.5726 
   43900    32.419103       0.0439    7.7302379   -1.0545302   -106.69777   0.23047739    8.7246754    8.2688592    596.54124 
   44000    20.109188        0.044     7.663423   -1.2869416   -106.60678   0.14296241    8.7255112    8.2683448    596.52416 
   44100    9.8672769       0.0441    7.6060671   -1.4797374   -106.53064  0.070149511    8.7263471     8.267947    596.52391 
   44200    2.9098331       0.0442    7.5662951   -1.6196011   -106.47806    0.0206869    8.7271829    8.2676796    596.54245 
   44300  0.065201069       0.0443    7.5501852   -1.6966552   -106.45495 0.00046353448    8.7280188    8.2675512    596.58106 
   44400    1.6753414       0.0444    7.5611272   -1.7053551   -106.46373  0.011910518    8.7288546    8.2675652    596.64021 
   44500    7.5546371       0.0445    7.5994202   -1.6449771   -106.50302  0.053708242    8.7296905    8.2677191    596.71956 
   44600    17.011763       0.0446    7.6622319   -1.5196772   -106.56784   0.12094186    8.7305264     8.268005    596.81796 
   44700    28.931542       0.0447    7.7439352   -1.3381222   -106.65017   0.20568324    8.7313622    8.2684096    596.93352 
   44800    41.905004       0.0448    7.8367164   -1.1127139    -106.7399   0.29791558    8.7321981    8.2689157    597.06376 
   44900    54.390585       0.0449    7.9314053  -0.85848173     -106.826   0.38667942    8.7330339    8.2695032    597.20576 
   45000    64.887647        0.045    8.0183779  -0.59171516   -106.89774   0.46130626    8.7338698    8.2701501    597.35637 
   45100    72.105465       0.0451    8.0885024  -0.32847881   -106.94595   0.51261996    8.7347056    8.2708341    597.51236 
   45200     75.11383       0.0452    8.1340244 -0.083129422   -106.96403   0.53400735    8.7355415    8.2715338    597.67064 
   45300     73.46364       0.0453    8.1494205   0.13300567   -106.94886   0.52227564    8.7363774    8.2722298    597.82844 
   45400    67.265328       0.0454    8.1322143   0.31260857   -106.90127   0.47820993    8.7372132    8.2729058    597.98335 
   45500    57.209585       0.0455    8.0840274    0.4527024   -106.82625   0.40672056    8.7380491    8.2735482    598.13344 
   45600    44.516894       0.0456    8.0113199   0.55435071   -106.73255   0.31648431    8.7388849    8.2741471    598.27726 
   45700    30.812895       0.0457    7.9245892   0.62232624   -106.63176   0.21905836    8.7397208    8.2746954    598.41379 
   45800     17.92947       0.0458    7.8371617   0.66404814   -106.53693   0.12746613    8.7405566    8.2751888    598.54239 
   45900    7.6498966       0.0459    7.7633531   0.68814394   -106.46074  0.054385471    8.7413925    8.2756245    598.66267 
   46000      1.43574        0.046    7.7158375   0.70300664   -106.41355  0.010207118    8.7422284    8.2760012    598.77441 
   46100   0.18613959       0.0461    7.7035132   0.71501077   -106.40172 0.0013233237    8.7430642    8.2763177    598.87747 
   46200    4.0829172       0.0462    7.7303435   0.72706934   -106.42649  0.029026716    8.7439001    8.2765733    598.97172 
   46300     12.55983       0.0463    7.7947688   0.73800468   -106.48381  0.089291701    8.7447359    8.2767671    599.05703 
   46400    24.403411       0.0464    7.8899184   0.74278729     -106.565   0.17349137    8.7455718    8.2768986    599.13332 
   46500    37.959807       0.0465    8.0047153   0.73365569   -106.65828   0.26986796    8.7464076    8.2769679    599.20063 
   46600     51.39827       0.0466    8.1253545   0.70182304   -106.75064   0.36540613    8.7472435     8.276977     599.2592 
   46700    62.977484       0.0467    8.2377478   0.63912565    -106.8297   0.44772633    8.7480794    8.2769298    599.30964 
   46800    71.271242       0.0468    8.3300823   0.53939438   -106.88533   0.50668921    8.7489152    8.2768334    599.35293 
   46900    75.325746       0.0469    8.3939797   0.39974962   -106.91075   0.53551392    8.7497511    8.2766977    599.39053 
   47000    74.742198        0.047    8.4255808   0.22122287   -106.90317    0.5313653    8.7505869    8.2765361     599.4244 
   47100    69.688248       0.0471    8.4255903 0.0089920765   -106.86379   0.49543522    8.7514228    8.2763653     599.4569 
   47200    60.845873       0.0472     8.398113  -0.22756189    -106.7975   0.43257205    8.7522586    8.2762038    599.49077 
   47300    49.312345       0.0473    8.3498063  -0.47557726   -106.71214   0.35057665    8.7530945    8.2760722    599.52895 
   47400    36.467581       0.0474    8.2890663  -0.71987701   -106.61755   0.25925926    8.7539304     8.275991    599.57443 
   47500    23.818723       0.0475    8.2251741  -0.94433922   -106.52451   0.16933464    8.7547662    8.2759798    599.63005 
   47600    12.833772       0.0476      8.16743   -1.1333639   -106.44347   0.09123924    8.7556021    8.2760557    599.69832 
   47700    4.7786025       0.0477    8.1242687   -1.2732608   -106.38346  0.033972557    8.7564379    8.2762326     599.7812 
   47800   0.57440484       0.0478    8.1024191   -1.3534402   -106.35102 0.0040836209    8.7572738    8.2765194    599.88003 
   47900   0.69299217       0.0479    8.1062058   -1.3673366   -106.34947 0.0049266948    8.7581096    8.2769199    599.99535 
   48000    5.1039734        0.048    8.1371105   -1.3129518   -106.37853  0.036285719    8.7589455    8.2774322     600.1269 
   48100    13.281204       0.0481    8.1935936   -1.1930223   -106.43435  0.094420171    8.7597814    8.2780489    600.27359 
   48200    24.267145       0.0482    8.2713002   -1.0147567   -106.51004    0.1725226    8.7606172    8.2787571     600.4336 
   48300    36.785345       0.0483    8.3635377  -0.78917932   -106.59643   0.26151834    8.7614531    8.2795398    600.60444 
   48400    49.385644       0.0484    8.4619741  -0.53020096   -106.68313   0.35109776    8.7622889    8.2803765    600.78314 
   48500    60.604275       0.0485    8.5574632  -0.25337564    -106.7597   0.43085446    8.7631248    8.2812445    600.96643 
   48600    69.122549       0.0486    8.6409135  0.025444635   -106.81677   0.49141349    8.7639606    8.2821205    601.15091 
   48700    73.910992       0.0487    8.7040821   0.29150068   -106.84705   0.52545601    8.7647965    8.2829814    601.33324 
   48800    74.348754       0.0488    8.7403972   0.53242204   -106.84619   0.52856819    8.7656324     8.283806    601.51033 
   48900    70.308973       0.0489    8.7456895   0.73926518    -106.8134   0.49984814    8.7664682    8.2845754    601.67944 
   49000     62.19829        0.049     8.719176   0.90703407   -106.75165    0.4421868    8.7673041     8.285274     601.8383 
   49100    50.937968       0.0491    8.6645907    1.0345328   -106.66759    0.3621337    8.7681399    8.2858895     601.9851 
   49200     37.88355       0.0492    8.5897778    1.1242323   -106.57092   0.26932582    8.7689758    8.2864129    602.11855 
   49300    24.678748       0.0493    8.5061376    1.1815122   -106.47336   0.17544882    8.7698116    8.2868381    602.23775 
   49400     13.05145       0.0494    8.4269904    1.2137374   -106.38723   0.09278678    8.7706475    8.2871618     602.3422 
   49500     4.574051       0.0495    8.3648018    1.2291231   -106.32368  0.032518337    8.7714833     8.287382    602.43161 
   49600   0.42350567       0.0496    8.3298742     1.235046   -106.29106 0.0030108323    8.7723192    8.2874981     602.5059 
   49700    1.1893167       0.0497    8.3287164    1.2363953   -106.29352 0.0084552186    8.7731551      8.28751    602.56505 
   49800    6.7731322       0.0498    8.3630509    1.2345674   -106.33031  0.048152283    8.7739909     8.287418    602.60908 
   49900    16.404373       0.0499    8.4297818    1.2271692   -106.39593   0.11662374    8.7748268    8.2872227    602.63808 
   50000    28.768331         0.05    8.5214521     1.208523   -106.48098   0.20452292    8.7756626    8.2869254    602.65224 
   50100     42.21605       0.0501    8.6272015     1.170923   -106.57371    0.3001269    8.7764985    8.2865285    602.65192 
   50200    55.009413       0.0502    8.7340415    1.1063165   -106.66174   0.39107886    8.7773343    8.2860367    602.63778 
   50300    65.555963       0.0503      8.82909     1.007882   -106.73373   0.46605753    8.7781702     8.285457    602.61084 
   50400      72.6016       0.0504    8.9021317   0.87096458   -106.78074   0.51614713    8.7790061    8.2847995    602.57256 
   50500     75.36065       0.0505    8.9464369   0.69414907   -106.79716   0.53576207    8.7798419    8.2840775    602.52491 
   50600    73.580419       0.0506    8.9597591   0.47976731   -106.78119   0.52310586    8.7806778    8.2833077    602.47028 
   50700    67.542658       0.0507    8.9439329   0.23409128   -106.73482   0.48018156    8.7815136    8.2825096    602.41153 
   50800    58.008241       0.0508    8.9037102 -0.032684988   -106.66346   0.41239845    8.7823495    8.2817048    602.35179 
   50900    46.119174       0.0509        8.846  -0.30720687   -106.57525   0.32787541    8.7831853    8.2809162     602.2944 
   51000    33.268598        0.051    8.7791161  -0.57411753   -106.48013   0.23651671    8.7840212    8.2801665    602.24266 
   51100    20.948236       0.0511    8.7119824   -0.8173974   -106.38877   0.14892746    8.7848571    8.2794773     602.1997 
   51200    10.584823       0.0512    8.6533382   -1.0217654   -106.31135  0.075250766    8.7856929    8.2788672    602.16824 
   51300    3.3803615       0.0513     8.610896   -1.1740381   -106.25648  0.024032031    8.7865288    8.2783511    602.15045 
   51400   0.17412791       0.0514    8.5905645   -1.2642461   -106.23014 0.0012379289    8.7873646     8.277939    602.14778 
   51500    1.3441709       0.0515    8.5958471   -1.2865295   -106.23505 0.0095561252    8.7882005    8.2776355     602.1609 
   51600    6.7624708       0.0516     8.627439   -1.2396388   -106.27025  0.048076488    8.7890363    8.2774393    602.18963 
   51700    15.810325       0.0517    8.6831559   -1.1270184   -106.33132   0.11240047    8.7898722    8.2773435    602.23296 
   51800    27.451505       0.0518    8.7581539  -0.95653758   -106.41082   0.19516121    8.7907081    8.2773359    602.28912 
   51900    40.352331       0.0519    8.8454546  -0.73976731   -106.49923   0.28687715    8.7915439    8.2774001    602.35573 
   52000    53.032159        0.052    8.9366238  -0.49098825   -106.58596   0.37702195    8.7923798    8.2775162     602.4299 
   52100    64.026264       0.0521    9.0225871  -0.22593307   -106.66058   0.45518243    8.7932156    8.2776625    602.50847 
   52200    72.044861       0.0522    9.0944455  0.039587814   -106.71393   0.51218911    8.7940515    8.2778165    602.58816 
   52300    76.115475       0.0523    9.1442364   0.29108883   -106.73912   0.54112835    8.7948873    8.2779565    602.66581 
   52400    75.698564       0.0524    9.1657165   0.51668688   -106.73239    0.5381644    8.7957232    8.2780622    602.73848 
   52500    70.766236       0.0525    9.1551515   0.70806165   -106.69358   0.50309897    8.7965591    8.2781162    602.80363 
   52600    61.829597       0.0526    9.1127165   0.86064113   -106.62641   0.43956565    8.7973949     8.278104    602.85914 
   52700    49.907784       0.0527    9.0433696     0.973555   -106.53817    0.3548098    8.7982308    8.2780147     602.9034 
   52800    36.434092       0.0528     8.956646    1.0491418    -106.4391   0.25902118    8.7990666    8.2778404    602.93529 
   52900    23.099978       0.0529    8.8652994    1.0927068   -106.34122   0.16422486    8.7999025    8.2775763    602.95408 
   53000    11.644748        0.053     8.782322    1.1118552   -106.25691    0.0827861    8.8007383    8.2772199    602.95944 
   53100    3.6109819       0.0531    8.7192175    1.1147977    -106.1971  0.025671583    8.8015742    8.2767706    602.95125 
   53200   0.10636871       0.0532    8.6850276    1.1085699   -106.16963 0.00075620791    8.8024101    8.2762288    602.92956 
   53300    1.6214418       0.0533    8.6851659    1.0974714   -106.17794  0.011527329    8.8032459    8.2755954    602.89452 
   53400    7.9455729       0.0534    8.7205245    1.0821453   -106.22048  0.056487525    8.8040818    8.2748717    602.84631 
   53500    18.201676       0.0535    8.7874178    1.0594307   -106.29096   0.12940132    8.8049176    8.2740595     602.7852 
   53600    30.991386       0.0536    8.8780841    1.0229572   -106.37941    0.2203273    8.8057535    8.2731615    602.71157 
   53700    44.616417       0.0537    8.9820186   0.96452273   -106.47371   0.31719185    8.8065893    8.2721819    602.62604 
   53800    57.328012       0.0538    9.0872393    0.8757694   -106.56137    0.4075625    8.8074252     8.271127    602.52954 
   53900    67.557846       0.0539    9.1813654   0.75000832    -106.6312   0.48028953    8.8082611     8.270006    602.42339 
   54000    74.098861        0.054    9.2532778   0.58368192    -106.6746   0.52679162    8.8090969    8.2688314    602.30942 
   54100    76.225797       0.0541    9.2958716   0.37671893   -106.68637   0.54191267    8.8099328    8.2676189    602.18994 
   54200    73.753164       0.0542     9.306706   0.13267004   -106.66517   0.52433395    8.8107686    8.2663878    602.06773 
   54300    67.033727       0.0543    9.2879321  -0.14110098   -106.61351   0.47656341    8.8116045    8.2651598    601.94596 
   54400    56.901296       0.0544    9.2449475   -0.4335128   -106.53734   0.40452884    8.8124403    8.2639587    601.82811 
   54500    44.567534       0.0545    9.1851631  -0.73036009   -106.44532   0.31684432    8.8132762    8.2628094    601.71779 
   54600    31.485433       0.0546    9.1171993    -1.015532   -106.34786   0.22383964    8.8141121    8.2617362    601.61854 
   54700     19.18958       0.0547    9.0501237   -1.2724255   -106.25596   0.13642464    8.8149479    8.2607617    601.53366 
   54800    9.1256554       0.0548    8.9926014    -1.485428   -106.17998  0.064877095    8.8157838    8.2599055      601.466 
   54900    2.4853896       0.0549    8.9520718   -1.6412839   -106.12848    0.0176694    8.8166196    8.2591828    601.41778 
   55000  0.066087998        0.055    8.9339771    -1.730289   -106.10719 0.00046983993    8.8174555    8.2586037    601.39046 
   55100    2.1735021       0.0551    8.9411937   -1.7471205   -106.11831  0.015452096    8.8182913    8.2581724    601.38464 
   55200    8.5824824       0.0552    8.9736834    -1.691349   -106.16022   0.06101551    8.8191272    8.2578868    601.40004 
   55300    18.561637       0.0553    9.0284813   -1.5674823   -106.22766   0.13196039    8.8199631    8.2577391    601.43553 
   55400    30.958615       0.0554    9.1000256   -1.3845666   -106.31238   0.22009433    8.8207989     8.257716    601.48917 
   55500     44.33362       0.0555    9.1807171    -1.155382   -106.40406   0.31518136    8.8216348    8.2578001    601.55841 
   55600    57.123462       0.0556    9.2617069  -0.89533242   -106.49153   0.40610828    8.8224706    8.2579704    601.64023 
   55700    67.816786       0.0557    9.3337026  -0.62103504   -106.56398   0.48213042    8.8233065    8.2582043    601.73131 
   55800     75.12335       0.0558    9.3877945  -0.34881132   -106.61224   0.53407503    8.8241423    8.2584786    601.82829 
   55900    78.123255       0.0559    9.4163507  -0.09319764   -106.62978   0.55540228    8.8249782     8.258771    601.92793 
   56000    76.384393        0.056    9.4137911   0.13436427   -106.61356   0.54304017    8.8258141    8.2590611    602.02723 
   56100    70.032503       0.0561    9.3783913   0.32613129   -106.56454   0.49788263    8.8266499    8.2593313    602.12363 
   56200    59.763054       0.0562    9.3135163   0.47812046   -106.48773   0.42487396    8.8274858     8.259567    602.21503 
   56300    46.790004       0.0563     9.227295    0.5898987   -106.39179   0.33264455    8.8283216    8.2597573     602.2998 
   56400    32.728481       0.0564    9.1311963   0.66499931   -106.28826   0.23267685    8.8291575    8.2598943    602.37681 
   56500    19.407954       0.0565    9.0377748   0.71037177   -106.19014   0.13797712    8.8299933    8.2599731    602.44534 
[...]
  485400     389.1794       0.4854    1.1372102   0.19943986   -99.399437    2.7667962    12.414984    7.8054679    764.23424 
  485500    385.02748       0.4855   0.86408643   0.30541725   -99.368173     2.737279     12.41582    7.8042374     764.3942 
  485600    379.97305       0.4856   0.65384726   0.40025677   -99.330664    2.7013454    12.416656    7.8029751    764.53718 
  485700    372.61735       0.4857   0.49142727   0.47773324      -99.277    2.6490515    12.417492     7.801672    764.66177 
  485800    362.28015       0.4858   0.35603603   0.50998321   -99.202366    2.5755612    12.418327    7.8003219     764.7673 
  485900    349.73949       0.4859   0.26366407    0.4700934   -99.112288    2.4864058    12.419163    7.7989255     764.8543 
  486000      336.608        0.486   0.25538233   0.36175353   -99.018211      2.39305    12.419999    7.7974908      764.925 
  486100    325.14133       0.4861   0.31665881   0.21527021   -98.936115    2.3115298    12.420835    7.7960317    764.98299 
  486200    317.92278       0.4862   0.36004594  0.059542751   -98.884269    2.2602109    12.421671    7.7945643    765.03214 
  486300    315.43529       0.4863   0.30217024 -0.082461092   -98.866023    2.2425266    12.422507    7.7931046    765.07529 
  486400    313.60472       0.4864  -0.13274911  -0.20339477   -98.852537    2.2295126    12.423343    7.7916661    765.11398 
  486500    309.90449       0.4865   -1.4917132  -0.31656917   -98.826405    2.2032065    12.424178    7.7902615     765.1516 
  486600    308.61391       0.4866  -0.83229007  -0.35796897   -98.817271    2.1940313    12.425014    7.7888989    765.19157 
  486700    305.62712       0.4867  0.072762744  -0.35373365   -98.795915    2.1727974     12.42585      7.78758    765.23513 
  486800    304.21812       0.4868  0.072023034  -0.30368307   -98.786053    2.1627803    12.426686    7.7863015    765.28452 
  486900    307.56124       0.4869   0.11385379  -0.23432002   -98.810266    2.1865476    12.427522    7.7850575    765.34194 
  487000     314.4721        0.487   0.19761625 -0.013207994   -98.860328     2.235679    12.428358    7.7838331     765.4091 
  487100    326.57317       0.4871   0.32468133   0.16534118   -98.947651    2.3217092    12.429194    7.7826045     765.4867 
  487200    342.09289       0.4872   0.42973023   0.15626494   -99.059207    2.4320437    12.430029     7.781363    765.57428 
  487300    353.69036       0.4873   0.49513787  0.041476404   -99.142483    2.5144937    12.430865    7.7801161    765.67013 
  487400    358.79559       0.4874   0.54890401 -0.079683959   -99.179106    2.5507883    12.431701    7.7788767    765.77182 
  487500     362.1988       0.4875   0.58709766  -0.14324848   -99.203173    2.5749828    12.432537    7.7776554    765.87664 
  487600    365.78247       0.4876   0.34912228   0.12110616   -99.228377    2.6004602    12.433373    7.7764454    765.98011 
  487700    371.87671       0.4877   -1.0138137   0.76338746   -99.272103    2.6437861    12.434209    7.7751948    766.07315 
  487800    392.19765       0.4878   -1.6349792    0.9712422   -99.417397    2.7882539    12.435045    7.7738528    766.14923 
  487900     412.2614       0.4879   0.10182699   0.75995775   -99.559992    2.9308933     12.43588    7.7724262    766.20777 
  488000    424.17696        0.488    1.0597182     0.894326   -99.644525    3.0156046    12.436716    7.7709237    766.24736 
  488100    433.75065       0.4881    1.0009624    1.3199987   -99.713077     3.083667    12.437552    7.7693123    766.26524 
  488200    445.26587       0.4882   0.93760407    1.5687324   -99.795895    3.1655322    12.438388    7.7675541    766.25784 
  488300    455.07697       0.4883    1.0490111    1.4504315   -99.866531    3.2352823    12.439224    7.7656426    766.22313 
  488400     455.1878       0.4884    1.2602873    1.2041097   -99.867964    3.2360703     12.44006    7.7636016    766.16138 
  488500    446.48979       0.4885    1.3955169    1.1727071   -99.806928    3.1742334    12.440896     7.761447    766.07353 
  488600    431.12656       0.4886    1.5015211    1.1902124    -99.69875    3.0650115    12.441731    7.7591778    765.96051 
  488700     412.0557       0.4887    1.5979578    1.1359793   -99.564315    2.9294309    12.442567    7.7567962    765.82388 
  488800    392.82929       0.4888    1.5650694    1.0037987   -99.428748    2.7927444    12.443403    7.7543124    765.66585 
  488900    376.05448       0.4889    1.3749354   0.83097841   -99.310524    2.6734871    12.444239    7.7517434    765.48959 
  489000    363.45586        0.489    1.6660736   0.66687473   -99.221694    2.5839197    12.445075    7.7491074    765.29752 
  489100    356.51009       0.4891    1.7321682   0.52625105   -99.172859      2.53454    12.445911    7.7464206    765.09144 
  489200    356.01635       0.4892    1.7704279   0.43633813   -99.169782    2.5310299    12.446747    7.7436956    764.87322 
  489300    361.35562       0.4893    1.8273694   0.39977465   -99.208138    2.5689884    12.447582     7.740939    764.64421 
  489400    370.44559       0.4894    1.8796141   0.39238409   -99.273174    2.6336118    12.448418     7.738153    764.40519 
  489500     380.4558       0.4895     1.892965   0.37223864   -99.344765    2.7047775    12.449254    7.7353388    764.15632 
  489600    388.92854       0.4896    1.8483433   0.29575042   -99.405378    2.7650128     12.45009    7.7325013    763.89733 
  489700    394.63565       0.4897    1.7509492   0.14055902   -99.446193    2.8055864    12.450926    7.7296525    763.62778 
  489800    397.47258       0.4898    1.6303637 -0.080126001   -99.466402     2.825755    12.451762    7.7268121    763.34744 
  489900    397.18743       0.4899    1.4954632  -0.25482517   -99.464326    2.8237277    12.452598    7.7240028    763.05653 
  490000    393.39804         0.49    1.3000589  -0.15568712   -99.437731    2.7967878    12.453433     7.721229    762.75474 
  490100    392.81361       0.4901    1.1573069 -0.025280419   -99.434394    2.7926329    12.454269    7.7184747    762.44017 
  490200    399.20029       0.4902    1.1398235  -0.19571867   -99.480618    2.8380378    12.455105    7.7157409     762.1116 
  490300    405.37581       0.4903    1.2148908  -0.47858537   -99.525158    2.8819415    12.455941    7.7130544     761.7701 
  490400     399.8455       0.4904   -1.1224769  -0.67196039   -99.486967    2.8426248    12.456777    7.7104391     761.4183 
  490500    396.49862       0.4905    -1.066717  -0.54777168    -99.46488    2.8188308    12.457613    7.7079012    761.05771 
  490600    395.44939       0.4906  -0.54473464  -0.34553483   -99.459455    2.8113715    12.458449    7.7054209    760.68513 
  490700    381.95253       0.4907    1.5841413  0.014206239   -99.365392    2.7154181    12.459284    7.7029682    760.29891 
  490800    364.45599       0.4908    1.5078679   0.23282512   -99.242997    2.5910299     12.46012    7.7005129    759.89845 
  490900    347.15583       0.4909    1.5518884   0.30258091   -99.121625    2.4680377    12.460956    7.6980383    759.48576 
  491000    336.22807        0.491    1.6328107  0.056888418   -99.044918    2.3903489    12.461792     7.695553    759.06493 
  491100    328.57518       0.4911    1.5204599  -0.32946861   -98.991165    2.3359421    12.462628    7.6930927     758.6395 
  491200    323.19934       0.4912    1.3282128  -0.54000975   -98.953588    2.2977237    12.463464    7.6906893    758.21104 
  491300    322.78595       0.4913    1.2252725  -0.61726971   -98.951276    2.2947847      12.4643    7.6883561    757.78035 
  491400    327.57634       0.4914    1.1760339   -0.6326662   -98.985982    2.3288411    12.465135    7.6860977    757.34821 
  491500    335.90315       0.4915    1.1003109  -0.56100914   -99.046026    2.3880389    12.465971    7.6839111    756.91461 
  491600    343.94203       0.4916   0.85723179  -0.27514347   -99.104644    2.4451898    12.466807    7.6817796    756.47781 
  491700    348.75285       0.4917   0.46943127   0.22296418   -99.141327    2.4793914    12.467643      7.67966    756.03298 
  491800    353.38617       0.4918   0.52756712   0.35770562    -99.17706    2.5123311    12.468479    7.6775144    755.57583 
  491900    357.43941       0.4919    1.1066416 -0.030836443   -99.207918    2.5411468    12.469315    7.6753586    755.10807 
  492000    360.46674        0.492    1.5202379  -0.40425879   -99.230721     2.562669    12.470151    7.6732364    754.63484 
  492100    362.79224       0.4921    1.4442397  -0.49637365   -99.248314    2.5792018    12.470986    7.6711717    754.15949 
  492200    361.45273       0.4922    0.9763652  -0.38349202   -99.239981    2.5696788    12.471822    7.6691619    753.68279 
  492300    354.37174       0.4923   0.43665932  -0.26092338   -99.190852    2.5193379    12.472658    7.6671933    753.20476 
  492400    344.11179       0.4924  0.060748427  -0.22950243   -99.118818    2.4463967    12.473494    7.6652577    752.72654 
  492500    333.73005       0.4925   -0.1341885  -0.24633793    -99.04537    2.3725897     12.47433    7.6633546    752.25057 
  492600    324.77319       0.4926  -0.18449154  -0.25216556   -98.981392    2.3089126    12.475166    7.6614857    751.77989 
  492700     316.4635       0.4927  -0.20832433  -0.10502807   -98.921492    2.2498365    12.476002    7.6596457    751.31707 
  492800     309.6418       0.4928  -0.32224272   0.26011127   -98.872058    2.2013389    12.476837    7.6578063    750.86248 
  492900    311.82195       0.4929  -0.33706311   0.39759444   -98.886735    2.2168383    12.477673    7.6559379    750.41491 
  493000      318.775        0.493  -0.12944181   0.19878245   -98.935326    2.2662697    12.478509    7.6540455    749.97431 
  493100    321.08909       0.4931   -1.7158612  -0.09733831   -98.951357    2.2827212    12.479345    7.6521561    749.54198 
  493200    331.76042       0.4932   -2.3778167  -0.22986115   -99.027211     2.358587    12.480181    7.6502929    749.11889 
  493300    347.43674       0.4933   -1.0989218  -0.27814452   -99.138629    2.4700348    12.481017    7.6484648    748.70387 
  493400    358.16143       0.4934   0.21542549    -0.363465   -99.214715    2.5462799    12.481853    7.6466756    748.29494 
  493500    365.88772       0.4935   0.25795847  -0.52663099   -99.269513    2.6012085    12.482688    7.6449395    747.89198 
  493600    369.27668       0.4936   0.24475795  -0.65837844   -99.293461    2.6253017    12.483524    7.6432717     747.4957 
  493700    371.07035       0.4937   0.14077597  -0.74244699    -99.30609    2.6380534     12.48436    7.6416827    747.10688 
  493800    376.77313       0.4938  0.022774057   -0.8317253   -99.346575    2.6785962    12.485196    7.6401803    746.72604 
  493900    386.34879       0.4939  0.025468541   -1.0129669   -99.414625    2.7466725    12.486032    7.6387773    746.35395 
  494000    392.40419        0.494   0.13487726   -1.2632868    -99.45765    2.7897223    12.486868     7.637496    745.99199 
  494100    391.70538       0.4941   0.17320601   -1.4125322    -99.45269    2.7847542    12.487704    7.6363579     745.6417 
  494200     388.2909       0.4942  0.055863847   -1.3753353   -99.428455    2.7604796    12.488539    7.6353674    745.30385 
  494300    383.28491       0.4943 -0.042366705   -1.3581625   -99.392812    2.7248905    12.489375    7.6345196    744.97912 
  494400    376.57863       0.4944   -0.0516452   -1.3926508   -99.344844    2.6772134    12.490211    7.6338149    744.66909 
  494500    366.90422       0.4945  0.042097061   -1.4829451   -99.275431    2.6084351    12.491047     7.633259    744.37629 
  494600    353.47158       0.4946   0.19909735    -1.602008   -99.178913    2.5129383    12.491883    7.6328621    744.10397 
  494700    337.42341       0.4947   0.35642057    -1.717682   -99.063465    2.3988469    12.492719    7.6326359    743.85567 
  494800    321.07487       0.4948   0.45234951   -1.8147664   -98.945703    2.2826201    12.493555    7.6325904    743.63466 
  494900    306.06132       0.4949   0.46527229   -1.9188394   -98.837484    2.1758842     12.49439    7.6327348    743.44354 
  495000    293.69529        0.495   0.37821184   -2.0079596   -98.748349    2.0879703    12.495226    7.6330786    743.28416 
  495100    285.94924       0.4951   0.19195688   -2.0567632   -98.692486    2.0329012    12.496062    7.6336283    743.15741 
  495200    284.73213       0.4952 -0.072017891   -2.0454924   -98.683583    2.0242484    12.496898    7.6343852    743.06303 
  495300    290.24242       0.4953  -0.37296696   -1.9668701   -98.723098    2.0634228    12.497734    7.6353442    742.99942 
  495400    300.46883       0.4954  -0.62402245   -1.8050445    -98.79659    2.1361254     12.49857    7.6364924    742.96386 
  495500    312.43008       0.4955  -0.81627894   -1.5933857   -98.882723    2.2211617    12.499406    7.6378099    742.95311 
  495600    323.40697       0.4956  -0.96619166   -1.3724287   -98.962043    2.2991998    12.500241     7.639274    742.96363 
  495700    329.21928       0.4957   -1.7060698     -1.22663   -99.004907    2.3405213    12.501077    7.6408639    742.99258 
  495800     323.2795       0.4958   -2.9716603      -1.2101   -98.964629    2.2982935    12.501913    7.6425731    743.03996 
  495900    315.10177       0.4959   -2.2238323   -1.0743939   -98.908057    2.2401555    12.502749    7.6443944      743.106 
  496000    323.14531        0.496   -1.0489748   -0.9811099   -98.966344    2.2973395    12.503585    7.6463119    743.18982 
  496100    321.84568       0.4961   -1.1348169   -1.0937654   -98.958383    2.2881001    12.504421    7.6483286    743.29277 
  496200    312.57184       0.4962   -1.1919339   -1.2178866   -98.894161    2.2221695    12.505257    7.6504566    743.41596 
  496300    307.69947       0.4963  -0.78142534   -1.3002565   -98.861154    2.1875303    12.506092    7.6527067    743.56114 
  496400    304.12862       0.4964  -0.51083784    -1.333141   -98.837483    2.1621441    12.506928    7.6550843    743.73064 
  496500    302.07169       0.4965  -0.25950175   -1.3175197   -98.824635    2.1475207    12.507764      7.65759    743.92508 
  496600    302.65988       0.4966 -0.0078186654   -1.2555238   -98.830572    2.1517023      12.5086    7.6602196    744.14465 
  496700    306.30026       0.4967   0.20591378   -1.1498874   -98.858123    2.1775829    12.509436    7.6629642    744.38926 
  496800    312.17794       0.4968   0.34268527   -1.0124657   -98.901457    2.2193691    12.510272    7.6658107    744.65861 
  496900    318.94474       0.4969   0.31581312  -0.86784636   -98.951051    2.2674764    12.511108    7.6687446    744.95208 
  497000    325.02389        0.497  0.062325049  -0.68427797   -98.995696    2.3106949    12.511943    7.6717492    745.26774 
  497100    326.69571       0.4971 -0.058376312  -0.49742539   -99.008847    2.3225804    12.512779    7.6748041    745.60371 
  497200    328.92829       0.4972  -0.29583749  -0.47054526   -99.026171    2.3384525    12.513615    7.6778971    745.95838 
  497300    330.47549       0.4973  -0.49256486  -0.65112269   -99.039158     2.349452    12.514451     7.681036    746.33011 
  497400    328.92635       0.4974  -0.63697798  -0.89620252   -99.030756    2.3384387    12.515287    7.6842451    746.71859 
  497500     331.5478       0.4975  -0.76467395  -0.94895412   -99.052245    2.3570754    12.516123    7.6875408    747.12378 
  497600     340.8101       0.4976  -0.79315987  -0.85411065   -99.120868    2.4229239    12.516959    7.6909197    747.54519 
  497700    350.75623       0.4977  -0.72352858  -0.68647966   -99.194097    2.4936341    12.517794    7.6943679    747.98227 
  497800    356.73837       0.4978  -0.63908578  -0.48267656   -99.238815    2.5361629     12.51863    7.6978655    748.43445 
  497900    359.45155       0.4979  -0.56845165  -0.31517269   -99.260047    2.5554517    12.519466    7.7013927    748.90116 
  498000    361.57606        0.498  -0.51046662  -0.23926815   -99.277048    2.5705556    12.520302    7.7049362    749.38207 
  498100    364.04603       0.4981  -0.43068632  -0.30445329   -99.296754    2.5881153    12.521138    7.7084952    749.87746 
  498200    366.05879       0.4982  -0.34629487  -0.49718626   -99.313719    2.6024247    12.521974    7.7120834    750.38847 
  498300    366.25312       0.4983  -0.29374063  -0.74915366   -99.318398    2.6038062     12.52281    7.7157245     750.9168 
  498400    363.55768       0.4984  -0.29457064  -0.97201169   -99.303177    2.5846435    12.523645    7.7194439    751.46431 
  498500    357.56221       0.4985  -0.35599946   -1.1092569   -99.265066    2.5420199    12.524481    7.7232603    752.03299 
  498600    349.07851       0.4986  -0.44263762   -1.1705138    -99.20978    2.4817066    12.525317    7.7271837    752.62487 
  498700    340.53166       0.4987  -0.51804227     -1.19507   -99.154521    2.4209445    12.526153    7.7312182    753.24197 
  498800    333.22295       0.4988  -0.67427069   -1.1104935   -99.108227    2.3689846    12.526989    7.7353614    753.88531 
  498900    329.50456       0.4989  -0.96314683  -0.96018548   -99.087249    2.3425494    12.527825    7.7395993     754.5536 
  499000    330.70315        0.499   -1.2426681  -0.91564467   -99.101033    2.3510706    12.528661    7.7439203    755.24393 
  499100    332.62383       0.4991   -1.3719158  -0.96373365   -99.119897    2.3647252    12.529496    7.7483257    755.95382 
  499200    331.90536       0.4992   -1.4718304  -0.91945008   -99.119658    2.3596175    12.530332    7.7528171    756.68104 
  499300    327.92891       0.4993    -1.687317  -0.63120328   -99.095209    2.3313476    12.531168    7.7573783    757.42174 
  499400    321.68553       0.4994   -2.0119646  -0.11298299   -99.052953    2.2869615    12.532004    7.7619642     758.1695 
  499500    316.73778       0.4995   -2.1545146   0.30830323   -99.018527    2.2517864     12.53284    7.7665231    758.91777 
  499600    318.95725       0.4996   -1.9634658   0.43468025   -99.034621    2.2675653    12.533676    7.7710244    759.66292 
  499700     326.9155       0.4997   -1.4127126   0.19938494   -99.092228     2.324143    12.534512    7.7754744    760.40616 
  499800    334.32895       0.4998  -0.74553662  -0.15819085   -99.147021    2.3768475    12.535347    7.7799074    761.15229 
  499900     340.6172       0.4999   -0.1508303  -0.42507441   -99.194558    2.4215526    12.536183    7.7843572    761.90573 
  500000    346.48643          0.5   0.19315681  -0.47818225   -99.239229    2.4632787    12.537019    7.7888415    762.66874 
  500100    350.57466       0.5001   0.37319321  -0.44970919   -99.271087    2.4923432    12.537855    7.7933599    763.44116 
Loop time of 1055.2 on 1 procs for 500000 steps with 56 atoms

Performance: 0.819 ns/day, 29.311 hours/ns, 473.842 timesteps/s
86.9% CPU use with 1 MPI tasks x 1 OpenMP threads

MPI task timing breakdown:
Section |  min time  |  avg time  |  max time  |%varavg| %total
---------------------------------------------------------------
Pair    | 954.07     | 954.07     | 954.07     |   0.0 | 90.42
Neigh   | 0.0069528  | 0.0069528  | 0.0069528  |   0.0 |  0.00
Comm    | 4.5597     | 4.5597     | 4.5597     |   0.0 |  0.43
Output  | 1.7322     | 1.7322     | 1.7322     |   0.0 |  0.16
Modify  | 92.944     | 92.944     | 92.944     |   0.0 |  8.81
Other   |            | 1.887      |            |       |  0.18

Nlocal:        56.0000 ave          56 max          56 min
Histogram: 1 0 0 0 0 0 0 0 0 0
Nghost:        845.000 ave         845 max         845 min
Histogram: 1 0 0 0 0 0 0 0 0 0
Neighs:        2699.00 ave        2699 max        2699 min
Histogram: 1 0 0 0 0 0 0 0 0 0
FullNghs:      5398.00 ave        5398 max        5398 min
Histogram: 1 0 0 0 0 0 0 0 0 0

Total # of neighbors = 5398
Ave neighs/atom = 96.392857
Neighbor list builds = 17
Dangerous builds = 0
Total wall time: 0:19:11
