ITEM: TIMESTEP
5000
ITEM: NUMBER OF ATOMS
56
ITEM: BOX BOUNDS pp pp pp
-7.7263492620392379e-02 8.3222634926205021e+00
-3.6069289525692660e-02 8.2810692895257318e+00
-3.6069289525691772e-02 8.2810692895257247e+00
ITEM: ATOMS id type xs ys zs
1 1 0.125 0.125 0.125
3 3 0.256234 0.255733 0.255733
15 3 0.493766 0.255733 0.494267
26 3 0.493766 0.494267 0.255733
55 3 0.256234 0.494267 0.494267
29 2 0.5 1.44749e-14 5.57972e-15
54 2 0.5 0.25 0.25
11 2 0.25 0.5 0.25
23 2 0.25 0.25 0.5
38 2 6.12309e-15 1.77111e-14 0.5
2 2 0.5 0.5 0.5
4 1 0.875 0.375 0.375
32 3 0.506234 0.00573345 0.244267
33 3 0.743766 0.244267 0.244267
50 3 0.506234 0.244267 0.00573345
56 3 0.743766 0.00573345 0.00573345
12 3 0.00623359 0.744267 0.00573345
16 3 0.00623359 0.505733 0.244267
17 1 0.375 0.875 0.375
46 3 0.243766 0.505733 0.00573345
52 3 0.243766 0.744267 0.244267
47 2 0.75 1 0.25
45 2 1 0.75 0.25
20 1 0.625 0.625 0.125
41 3 0.993766 0.994267 0.255733
44 3 0.756234 0.755733 0.255733
48 3 0.993766 0.755733 0.494267
49 3 0.756234 0.994267 0.494267
40 2 0.75 0.75 0.5
24 3 0.00623359 0.00573345 0.744267
27 3 0.243766 0.00573345 0.505733
37 1 0.375 0.375 0.875
39 3 0.243766 0.244267 0.744267
42 3 0.00623359 0.244267 0.505733
31 2 0.75 0.25 1
51 2 1 0.5 1
21 2 1 0.25 0.75
7 1 0.625 0.125 0.625
22 3 0.756234 0.494267 0.994267
25 3 0.993766 0.255733 0.994267
34 3 0.993766 0.494267 0.755733
53 3 0.756234 0.255733 0.755733
18 2 0.75 0.5 0.75
8 2 0.25 0.75 1
35 2 0.25 1 0.75
9 3 0.493766 0.994267 0.755733
13 3 0.256234 0.994267 0.994267
28 1 0.125 0.625 0.625
30 3 0.256234 0.755733 0.755733
36 3 0.493766 0.755733 0.994267
5 2 0.5 0.75 0.75
6 3 0.743766 0.505733 0.505733
10 1 0.875 0.875 0.875
14 3 0.743766 0.744267 0.744267
19 3 0.506234 0.744267 0.505733
43 3 0.506234 0.505733 0.744267
ITEM: TIMESTEP
10000
ITEM: NUMBER OF ATOMS
56
ITEM: BOX BOUNDS pp pp pp
-9.8159917601089205e-02 8.3431599176011986e+00
-4.2059248107578995e-02 8.2870592481075960e+00
-4.2059248107578107e-02 8.2870592481075889e+00
ITEM: ATOMS id type xs ys zs
1 1 0.125 0.125 0.125
3 3 0.261205 0.26108 0.26108
15 3 0.488795 0.26108 0.48892
26 3 0.488795 0.48892 0.26108
55 3 0.261205 0.48892 0.48892
29 2 0.5 1.16532e-14 -6.20984e-15
54 2 0.5 0.25 0.25
11 2 0.25 0.5 0.25
23 2 0.25 0.25 0.5
38 2 -1.71357e-14 3.34735e-15 0.5
2 2 0.5 0.5 0.5
4 1 0.875 0.375 0.375
32 3 0.511205 0.0110804 0.23892
33 3 0.738795 0.23892 0.23892
50 3 0.511205 0.23892 0.0110804
56 3 0.738795 0.0110804 0.0110804
12 3 0.0112054 0.73892 0.0110804
16 3 0.0112054 0.51108 0.23892
17 1 0.375 0.875 0.375
46 3 0.238795 0.51108 0.0110804
52 3 0.238795 0.73892 0.23892
47 2 0.75 1 0.25
45 2 1 0.75 0.25
20 1 0.625 0.625 0.125
41 3 0.988795 0.98892 0.26108
44 3 0.761205 0.76108 0.26108
48 3 0.988795 0.76108 0.48892
49 3 0.761205 0.98892 0.48892
40 2 0.75 0.75 0.5
24 3 0.0112054 0.0110804 0.73892
27 3 0.238795 0.0110804 0.51108
37 1 0.375 0.375 0.875
39 3 0.238795 0.23892 0.73892
42 3 0.0112054 0.23892 0.51108
31 2 0.75 0.25 1
51 2 1 0.5 1
21 2 1 0.25 0.75
7 1 0.625 0.125 0.625
22 3 0.761205 0.48892 0.98892
25 3 0.988795 0.26108 0.98892
34 3 0.988795 0.48892 0.76108
53 3 0.761205 0.26108 0.76108
18 2 0.75 0.5 0.75
8 2 0.25 0.75 1
35 2 0.25 1 0.75
9 3 0.488795 0.98892 0.76108
13 3 0.261205 0.98892 0.98892
28 1 0.125 0.625 0.625
30 3 0.261205 0.76108 0.76108
36 3 0.488795 0.76108 0.98892
5 2 0.5 0.75 0.75
6 3 0.738795 0.51108 0.51108
10 1 0.875 0.875 0.875
14 3 0.738795 0.73892 0.73892
19 3 0.511205 0.73892 0.51108
43 3 0.511205 0.51108 0.73892
ITEM: TIMESTEP
15000
ITEM: NUMBER OF ATOMS
56
ITEM: BOX BOUNDS pp pp pp
-1.1905634258178602e-01 8.3640563425818968e+00
-3.9408515452071136e-02 8.2844085154521405e+00
-3.9408515452084458e-02 8.2844085154521476e+00
ITEM: ATOMS id type xs ys zs
1 1 0.125 0.125 0.125
3 3 0.256386 0.255056 0.255056
15 3 0.493614 0.255056 0.494944
26 3 0.493614 0.494944 0.255056
55 3 0.256386 0.494944 0.494944
29 2 0.5 -4.20369e-14 -3.87925e-14
54 2 0.5 0.25 0.25
11 2 0.25 0.5 0.25
23 2 0.25 0.25 0.5
38 2 -2.76489e-14 -2.72827e-14 0.5
2 2 0.5 0.5 0.5
4 1 0.875 0.375 0.375
32 3 0.506386 0.00505579 0.244944
33 3 0.743614 0.244944 0.244944
50 3 0.506386 0.244944 0.00505579
56 3 0.743614 0.00505579 0.00505579
12 3 0.0063862 0.744944 0.00505579
16 3 0.0063862 0.505056 0.244944
17 1 0.375 0.875 0.375
46 3 0.243614 0.505056 0.00505579
52 3 0.243614 0.744944 0.244944
47 2 0.75 1 0.25
45 2 1 0.75 0.25
20 1 0.625 0.625 0.125
41 3 0.993614 0.994944 0.255056
44 3 0.756386 0.755056 0.255056
48 3 0.993614 0.755056 0.494944
49 3 0.756386 0.994944 0.494944
40 2 0.75 0.75 0.5
24 3 0.0063862 0.00505579 0.744944
27 3 0.243614 0.00505579 0.505056
37 1 0.375 0.375 0.875
39 3 0.243614 0.244944 0.744944
42 3 0.0063862 0.244944 0.505056
31 2 0.75 0.25 1
51 2 1 0.5 1
21 2 1 0.25 0.75
7 1 0.625 0.125 0.625
22 3 0.756386 0.494944 0.994944
25 3 0.993614 0.255056 0.994944
34 3 0.993614 0.494944 0.755056
53 3 0.756386 0.255056 0.755056
18 2 0.75 0.5 0.75
8 2 0.25 0.75 1
35 2 0.25 1 0.75
9 3 0.493614 0.994944 0.755056
13 3 0.256386 0.994944 0.994944
28 1 0.125 0.625 0.625
30 3 0.256386 0.755056 0.755056
36 3 0.493614 0.755056 0.994944
5 2 0.5 0.75 0.75
6 3 0.743614 0.505056 0.505056
10 1 0.875 0.875 0.875
14 3 0.743614 0.744944 0.744944
19 3 0.506386 0.744944 0.505056
43 3 0.506386 0.505056 0.744944
ITEM: TIMESTEP
20000
ITEM: NUMBER OF ATOMS
56
ITEM: BOX BOUNDS pp pp pp
-1.3995276756248284e-01 8.3849527675625932e+00
-2.6475102975113352e-02 8.2714751029752360e+00
-2.6475102975139109e-02 8.2714751029752609e+00
ITEM: ATOMS id type xs ys zs
1 1 0.125 0.125 0.125
3 3 0.262006 0.261443 0.261443
15 3 0.487994 0.261443 0.488557
26 3 0.487994 0.488557 0.261443
55 3 0.262006 0.488557 0.488557
29 2 0.5 -7.19858e-15 4.7978e-15
54 2 0.5 0.25 0.25
11 2 0.25 0.5 0.25
23 2 0.25 0.25 0.5
38 2 5.27183e-14 -2.99115e-15 0.5
2 2 0.5 0.5 0.5
4 1 0.875 0.375 0.375
32 3 0.512006 0.0114426 0.238557
33 3 0.737994 0.238557 0.238557
50 3 0.512006 0.238557 0.0114426
56 3 0.737994 0.0114426 0.0114426
12 3 0.0120056 0.738557 0.0114426
16 3 0.0120056 0.511443 0.238557
17 1 0.375 0.875 0.375
46 3 0.237994 0.511443 0.0114426
52 3 0.237994 0.738557 0.238557
47 2 0.75 1 0.25
45 2 1 0.75 0.25
20 1 0.625 0.625 0.125
41 3 0.987994 0.988557 0.261443
44 3 0.762006 0.761443 0.261443
48 3 0.987994 0.761443 0.488557
49 3 0.762006 0.988557 0.488557
40 2 0.75 0.75 0.5
24 3 0.0120056 0.0114426 0.738557
27 3 0.237994 0.0114426 0.511443
37 1 0.375 0.375 0.875
39 3 0.237994 0.238557 0.738557
42 3 0.0120056 0.238557 0.511443
31 2 0.75 0.25 1
51 2 1 0.5 1
21 2 1 0.25 0.75
7 1 0.625 0.125 0.625
22 3 0.762006 0.488557 0.988557
25 3 0.987994 0.261443 0.988557
34 3 0.987994 0.488557 0.761443
53 3 0.762006 0.261443 0.761443
18 2 0.75 0.5 0.75
8 2 0.25 0.75 1
35 2 0.25 1 0.75
9 3 0.487994 0.988557 0.761443
13 3 0.262006 0.988557 0.988557
28 1 0.125 0.625 0.625
30 3 0.262006 0.761443 0.761443
36 3 0.487994 0.761443 0.988557
5 2 0.5 0.75 0.75
6 3 0.737994 0.511443 0.511443
10 1 0.875 0.875 0.875
14 3 0.737994 0.738557 0.738557
19 3 0.512006 0.738557 0.511443
43 3 0.512006 0.511443 0.738557
ITEM: TIMESTEP
25000
ITEM: NUMBER OF ATOMS
56
ITEM: BOX BOUNDS pp pp pp
-1.6084919254317967e-01 8.4058491925432897e+00
-3.8034491018943406e-02 8.2830344910191460e+00
-3.8034491018889227e-02 8.2830344910190785e+00
ITEM: ATOMS id type xs ys zs
1 1 0.125 0.125 0.125
3 3 0.256896 0.254495 0.254495
15 3 0.493104 0.254495 0.495505
26 3 0.493104 0.495505 0.254495
55 3 0.256896 0.495505 0.495505
29 2 0.5 5.82667e-14 2.53212e-14
54 2 0.5 0.25 0.25
11 2 0.25 0.5 0.25
23 2 0.25 0.25 0.5
38 2 -2.0457e-14 1.12192e-14 0.5
2 2 0.5 0.5 0.5
4 1 0.875 0.375 0.375
32 3 0.506896 0.00449503 0.245505
33 3 0.743104 0.245505 0.245505
50 3 0.506896 0.245505 0.00449503
56 3 0.743104 0.00449503 0.00449503
12 3 0.00689587 0.745505 0.00449503
16 3 0.00689587 0.504495 0.245505
17 1 0.375 0.875 0.375
46 3 0.243104 0.504495 0.00449503
52 3 0.243104 0.745505 0.245505
47 2 0.75 1 0.25
45 2 1 0.75 0.25
20 1 0.625 0.625 0.125
41 3 0.993104 0.995505 0.254495
44 3 0.756896 0.754495 0.254495
48 3 0.993104 0.754495 0.495505
49 3 0.756896 0.995505 0.495505
40 2 0.75 0.75 0.5
24 3 0.00689587 0.00449503 0.745505
27 3 0.243104 0.00449503 0.504495
37 1 0.375 0.375 0.875
39 3 0.243104 0.245505 0.745505
42 3 0.00689587 0.245505 0.504495
31 2 0.75 0.25 1
51 2 1 0.5 1
21 2 1 0.25 0.75
7 1 0.625 0.125 0.625
22 3 0.756896 0.495505 0.995505
25 3 0.993104 0.254495 0.995505
34 3 0.993104 0.495505 0.754495
53 3 0.756896 0.254495 0.754495
18 2 0.75 0.5 0.75
8 2 0.25 0.75 1
35 2 0.25 1 0.75
9 3 0.493104 0.995505 0.754495
13 3 0.256896 0.995505 0.995505
28 1 0.125 0.625 0.625
30 3 0.256896 0.754495 0.754495
36 3 0.493104 0.754495 0.995505
5 2 0.5 0.75 0.75
6 3 0.743104 0.504495 0.504495
10 1 0.875 0.875 0.875
14 3 0.743104 0.745505 0.745505
19 3 0.506896 0.745505 0.504495
43 3 0.506896 0.504495 0.745505
ITEM: TIMESTEP
30000
ITEM: NUMBER OF ATOMS
56
ITEM: BOX BOUNDS pp pp pp
-1.8174561752387650e-01 8.4267456175239861e+00
-2.0869194931123936e-02 8.2658691949312519e+00
-2.0869194931109725e-02 8.2658691949312377e+00
ITEM: ATOMS id type xs ys zs
1 1 0.125 0.125 0.125
3 3 0.261817 0.261116 0.261116
15 3 0.488183 0.261116 0.488884
26 3 0.488183 0.488884 0.261116
55 3 0.261817 0.488884 0.488884
29 2 0.5 -3.6902e-14 -3.59026e-14
54 2 0.5 0.25 0.25
11 2 0.25 0.5 0.25
23 2 0.25 0.25 0.5
38 2 -3.13683e-14 2.04782e-14 0.5
2 2 0.5 0.5 0.5
4 1 0.875 0.375 0.375
32 3 0.511817 0.0111158 0.238884
33 3 0.738183 0.238884 0.238884
50 3 0.511817 0.238884 0.0111158
56 3 0.738183 0.0111158 0.0111158
12 3 0.0118168 0.738884 0.0111158
16 3 0.0118168 0.511116 0.238884
17 1 0.375 0.875 0.375
46 3 0.238183 0.511116 0.0111158
52 3 0.238183 0.738884 0.238884
47 2 0.75 1 0.25
45 2 1 0.75 0.25
20 1 0.625 0.625 0.125
41 3 0.988183 0.988884 0.261116
44 3 0.761817 0.761116 0.261116
48 3 0.988183 0.761116 0.488884
49 3 0.761817 0.988884 0.488884
40 2 0.75 0.75 0.5
24 3 0.0118168 0.0111158 0.738884
27 3 0.238183 0.0111158 0.511116
37 1 0.375 0.375 0.875
39 3 0.238183 0.238884 0.738884
42 3 0.0118168 0.238884 0.511116
31 2 0.75 0.25 1
51 2 1 0.5 1
21 2 1 0.25 0.75
7 1 0.625 0.125 0.625
22 3 0.761817 0.488884 0.988884
25 3 0.988183 0.261116 0.988884
34 3 0.988183 0.488884 0.761116
53 3 0.761817 0.261116 0.761116
18 2 0.75 0.5 0.75
8 2 0.25 0.75 1
35 2 0.25 1 0.75
9 3 0.488183 0.988884 0.761116
13 3 0.261817 0.988884 0.988884
28 1 0.125 0.625 0.625
30 3 0.261817 0.761116 0.761116
36 3 0.488183 0.761116 0.988884
5 2 0.5 0.75 0.75
6 3 0.738183 0.511116 0.511116
10 1 0.875 0.875 0.875
14 3 0.738183 0.738884 0.738884
19 3 0.511817 0.738884 0.511116
43 3 0.511817 0.511116 0.738884
ITEM: TIMESTEP
35000
ITEM: NUMBER OF ATOMS
56
ITEM: BOX BOUNDS pp pp pp
-2.0264204250457332e-01 8.4476420425046825e+00
-2.6355435043693198e-02 8.2713554350437395e+00
-2.6355435043749154e-02 8.2713554350437999e+00
ITEM: ATOMS id type xs ys zs
1 1 0.125 0.125 0.125
3 3 0.258147 0.255607 0.255607
15 3 0.491853 0.255607 0.494393
26 3 0.491853 0.494393 0.255607
55 3 0.258147 0.494393 0.494393
29 2 0.5 -5.33639e-14 -8.69219e-14
54 2 0.5 0.25 0.25
11 2 0.25 0.5 0.25
23 2 0.25 0.25 0.5
38 2 -9.17669e-16 3.65045e-14 0.5
2 2 0.5 0.5 0.5
4 1 0.875 0.375 0.375
32 3 0.508147 0.0056075 0.244393
33 3 0.741853 0.244393 0.244393
50 3 0.508147 0.244393 0.0056075
56 3 0.741853 0.0056075 0.0056075
12 3 0.00814713 0.744393 0.0056075
16 3 0.00814713 0.505607 0.244393
17 1 0.375 0.875 0.375
46 3 0.241853 0.505607 0.0056075
52 3 0.241853 0.744393 0.244393
47 2 0.75 1 0.25
45 2 1 0.75 0.25
20 1 0.625 0.625 0.125
41 3 0.991853 0.994393 0.255607
44 3 0.758147 0.755607 0.255607
48 3 0.991853 0.755607 0.494393
49 3 0.758147 0.994393 0.494393
40 2 0.75 0.75 0.5
24 3 0.00814713 0.0056075 0.744393
27 3 0.241853 0.0056075 0.505607
37 1 0.375 0.375 0.875
39 3 0.241853 0.244393 0.744393
42 3 0.00814713 0.244393 0.505607
31 2 0.75 0.25 1
51 2 1 0.5 1
21 2 1 0.25 0.75
7 1 0.625 0.125 0.625
22 3 0.758147 0.494393 0.994393
25 3 0.991853 0.255607 0.994393
34 3 0.991853 0.494393 0.755607
53 3 0.758147 0.255607 0.755607
18 2 0.75 0.5 0.75
8 2 0.25 0.75 1
35 2 0.25 1 0.75
9 3 0.491853 0.994393 0.755607
13 3 0.258147 0.994393 0.994393
28 1 0.125 0.625 0.625
30 3 0.258147 0.755607 0.755607
36 3 0.491853 0.755607 0.994393
5 2 0.5 0.75 0.75
6 3 0.741853 0.505607 0.505607
10 1 0.875 0.875 0.875
14 3 0.741853 0.744393 0.744393
19 3 0.508147 0.744393 0.505607
43 3 0.508147 0.505607 0.744393
ITEM: TIMESTEP
40000
ITEM: NUMBER OF ATOMS
56
ITEM: BOX BOUNDS pp pp pp
-2.2353846748527012e-01 8.4685384674853807e+00
-2.2942102188746816e-02 8.2679421021886448e+00
-2.2942102188740598e-02 8.2679421021886483e+00
ITEM: ATOMS id type xs ys zs
1 1 0.125 0.125 0.125
3 3 0.259954 0.258593 0.258593
15 3 0.490046 0.258593 0.491407
26 3 0.490046 0.491407 0.258593
55 3 0.259954 0.491407 0.491407
29 2 0.5 1.19752e-13 -6.78851e-14
54 2 0.5 0.25 0.25
11 2 0.25 0.5 0.25
23 2 0.25 0.25 0.5
38 2 6.06709e-17 -3.65492e-14 0.5
2 2 0.5 0.5 0.5
4 1 0.875 0.375 0.375
32 3 0.509954 0.00859272 0.241407
33 3 0.740046 0.241407 0.241407
50 3 0.509954 0.241407 0.00859272
56 3 0.740046 0.00859272 0.00859272
12 3 0.00995405 0.741407 0.00859272
16 3 0.00995405 0.508593 0.241407
17 1 0.375 0.875 0.375
46 3 0.240046 0.508593 0.00859272
52 3 0.240046 0.741407 0.241407
47 2 0.75 1 0.25
45 2 1 0.75 0.25
20 1 0.625 0.625 0.125
41 3 0.990046 0.991407 0.258593
44 3 0.759954 0.758593 0.258593
48 3 0.990046 0.758593 0.491407
49 3 0.759954 0.991407 0.491407
40 2 0.75 0.75 0.5
24 3 0.00995405 0.00859272 0.741407
27 3 0.240046 0.00859272 0.508593
37 1 0.375 0.375 0.875
39 3 0.240046 0.241407 0.741407
42 3 0.00995405 0.241407 0.508593
31 2 0.75 0.25 1
51 2 1 0.5 1
21 2 1 0.25 0.75
7 1 0.625 0.125 0.625
22 3 0.759954 0.491407 0.991407
25 3 0.990046 0.258593 0.991407
34 3 0.990046 0.491407 0.758593
53 3 0.759954 0.258593 0.758593
18 2 0.75 0.5 0.75
8 2 0.25 0.75 1
35 2 0.25 1 0.75
9 3 0.490046 0.991407 0.758593
13 3 0.259954 0.991407 0.991407
28 1 0.125 0.625 0.625
30 3 0.259954 0.758593 0.758593
36 3 0.490046 0.758593 0.991407
5 2 0.5 0.75 0.75
6 3 0.740046 0.508593 0.508593
10 1 0.875 0.875 0.875
14 3 0.740046 0.741407 0.741407
19 3 0.509954 0.741407 0.508593
43 3 0.509954 0.508593 0.741407
ITEM: TIMESTEP
45000
ITEM: NUMBER OF ATOMS
56
ITEM: BOX BOUNDS pp pp pp
-2.4443489246596697e-01 8.4894348924660772e+00
-1.2575057475606499e-02 8.2575750574754352e+00
-1.2575057475551432e-02 8.2575750574753926e+00
ITEM: ATOMS id type xs ys zs
1 1 0.125 0.125 0.125
3 3 0.260426 0.259238 0.259238
15 3 0.489574 0.259238 0.490762
26 3 0.489574 0.490762 0.259238
55 3 0.260426 0.490762 0.490762
29 2 0.5 2.06279e-13 -1.92882e-13
54 2 0.5 0.25 0.25
11 2 0.25 0.5 0.25
23 2 0.25 0.25 0.5
38 2 1.14882e-14 1.32278e-13 0.5
2 2 0.5 0.5 0.5
4 1 0.875 0.375 0.375
32 3 0.510426 0.00923774 0.240762
33 3 0.739574 0.240762 0.240762
50 3 0.510426 0.240762 0.00923774
56 3 0.739574 0.00923774 0.00923774
12 3 0.0104261 0.740762 0.00923774
16 3 0.0104261 0.509238 0.240762
17 1 0.375 0.875 0.375
46 3 0.239574 0.509238 0.00923774
52 3 0.239574 0.740762 0.240762
47 2 0.75 1 0.25
45 2 1 0.75 0.25
20 1 0.625 0.625 0.125
41 3 0.989574 0.990762 0.259238
44 3 0.760426 0.759238 0.259238
48 3 0.989574 0.759238 0.490762
49 3 0.760426 0.990762 0.490762
40 2 0.75 0.75 0.5
24 3 0.0104261 0.00923774 0.740762
27 3 0.239574 0.00923774 0.509238
37 1 0.375 0.375 0.875
39 3 0.239574 0.240762 0.740762
42 3 0.0104261 0.240762 0.509238
31 2 0.75 0.25 1
51 2 1 0.5 1
21 2 1 0.25 0.75
7 1 0.625 0.125 0.625
22 3 0.760426 0.490762 0.990762
25 3 0.989574 0.259238 0.990762
34 3 0.989574 0.490762 0.759238
53 3 0.760426 0.259238 0.759238
18 2 0.75 0.5 0.75
8 2 0.25 0.75 1
35 2 0.25 1 0.75
9 3 0.489574 0.990762 0.759238
13 3 0.260426 0.990762 0.990762
28 1 0.125 0.625 0.625
30 3 0.260426 0.759238 0.759238
36 3 0.489574 0.759238 0.990762
5 2 0.5 0.75 0.75
6 3 0.739574 0.509238 0.509238
10 1 0.875 0.875 0.875
14 3 0.739574 0.740762 0.740762
19 3 0.510426 0.740762 0.509238
43 3 0.510426 0.509238 0.740762
ITEM: TIMESTEP
50000
ITEM: NUMBER OF ATOMS
56
ITEM: BOX BOUNDS pp pp pp
-2.6533131744666383e-01 8.5103313174467736e+00
-2.0962678954882463e-02 8.2659626789546898e+00
-2.0962678954883351e-02 8.2659626789547040e+00
ITEM: ATOMS id type xs ys zs
1 1 0.125 0.125 0.125
3 3 0.25764 0.254751 0.254751
15 3 0.49236 0.254751 0.495249
26 3 0.49236 0.495249 0.254751
55 3 0.25764 0.495249 0.495249
29 2 0.5 5.11883e-13 -7.05241e-13
54 2 0.5 0.25 0.25
11 2 0.25 0.5 0.25
23 2 0.25 0.25 0.5
38 2 -2.59349e-14 5.35082e-13 0.5
2 2 0.5 0.5 0.5
4 1 0.875 0.375 0.375
32 3 0.50764 0.00475081 0.245249
33 3 0.74236 0.245249 0.245249
50 3 0.50764 0.245249 0.00475081
56 3 0.74236 0.00475081 0.00475081
12 3 0.00763972 0.745249 0.00475081
16 3 0.00763972 0.504751 0.245249
17 1 0.375 0.875 0.375
46 3 0.24236 0.504751 0.00475081
52 3 0.24236 0.745249 0.245249
47 2 0.75 1 0.25
45 2 1 0.75 0.25
20 1 0.625 0.625 0.125
41 3 0.99236 0.995249 0.254751
44 3 0.75764 0.754751 0.254751
48 3 0.99236 0.754751 0.495249
49 3 0.75764 0.995249 0.495249
40 2 0.75 0.75 0.5
24 3 0.00763972 0.00475081 0.745249
27 3 0.24236 0.00475081 0.504751
37 1 0.375 0.375 0.875
39 3 0.24236 0.245249 0.745249
42 3 0.00763972 0.245249 0.504751
31 2 0.75 0.25 1
51 2 1 0.5 1
21 2 1 0.25 0.75
7 1 0.625 0.125 0.625
22 3 0.75764 0.495249 0.995249
25 3 0.99236 0.254751 0.995249
34 3 0.99236 0.495249 0.754751
53 3 0.75764 0.254751 0.754751
18 2 0.75 0.5 0.75
8 2 0.25 0.75 1
35 2 0.25 1 0.75
9 3 0.49236 0.995249 0.754751
13 3 0.25764 0.995249 0.995249
28 1 0.125 0.625 0.625
30 3 0.25764 0.754751 0.754751
36 3 0.49236 0.754751 0.995249
5 2 0.5 0.75 0.75
6 3 0.74236 0.504751 0.504751
10 1 0.875 0.875 0.875
14 3 0.74236 0.745249 0.745249
19 3 0.50764 0.745249 0.504751
43 3 0.50764 0.504751 0.745249
ITEM: TIMESTEP
55000
ITEM: NUMBER OF ATOMS
56
ITEM: BOX BOUNDS pp pp pp
-2.8622774242736060e-01 8.5312277424274701e+00
-6.8018748731786260e-03 8.2518018748728927e+00
-6.8018748731919487e-03 8.2518018748729247e+00
ITEM: ATOMS id type xs ys zs
1 1 0.125 0.125 0.125
3 3 0.261578 0.261967 0.261967
15 3 0.488422 0.261967 0.488033
26 3 0.488422 0.488033 0.261967
55 3 0.261578 0.488033 0.488033
29 2 0.5 1.93749e-12 -1.83547e-12
54 2 0.5 0.25 0.25
11 2 0.25 0.5 0.25
23 2 0.25 0.25 0.5
38 2 1.38572e-13 1.6266e-12 0.5
2 2 0.5 0.5 0.5
4 1 0.875 0.375 0.375
32 3 0.511578 0.0119671 0.238033
33 3 0.738422 0.238033 0.238033
50 3 0.511578 0.238033 0.0119671
56 3 0.738422 0.0119671 0.0119671
12 3 0.0115783 0.738033 0.0119671
16 3 0.0115783 0.511967 0.238033
17 1 0.375 0.875 0.375
46 3 0.238422 0.511967 0.0119671
52 3 0.238422 0.738033 0.238033
47 2 0.75 1 0.25
45 2 1 0.75 0.25
20 1 0.625 0.625 0.125
41 3 0.988422 0.988033 0.261967
44 3 0.761578 0.761967 0.261967
48 3 0.988422 0.761967 0.488033
49 3 0.761578 0.988033 0.488033
40 2 0.75 0.75 0.5
24 3 0.0115783 0.0119671 0.738033
27 3 0.238422 0.0119671 0.511967
37 1 0.375 0.375 0.875
39 3 0.238422 0.238033 0.738033
42 3 0.0115783 0.238033 0.511967
31 2 0.75 0.25 1
51 2 1 0.5 1
21 2 1 0.25 0.75
7 1 0.625 0.125 0.625
22 3 0.761578 0.488033 0.988033
25 3 0.988422 0.261967 0.988033
34 3 0.988422 0.488033 0.761967
53 3 0.761578 0.261967 0.761967
18 2 0.75 0.5 0.75
8 2 0.25 0.75 1
35 2 0.25 1 0.75
9 3 0.488422 0.988033 0.761967
13 3 0.261578 0.988033 0.988033
28 1 0.125 0.625 0.625
30 3 0.261578 0.761967 0.761967
36 3 0.488422 0.761967 0.988033
5 2 0.5 0.75 0.75
6 3 0.738422 0.511967 0.511967
10 1 0.875 0.875 0.875
14 3 0.738422 0.738033 0.738033
19 3 0.511578 0.738033 0.511967
43 3 0.511578 0.511967 0.738033
ITEM: TIMESTEP
60000
ITEM: NUMBER OF ATOMS
56
ITEM: BOX BOUNDS pp pp pp
-3.0712416740805742e-01 8.5521241674081683e+00
-9.9620219481204586e-03 8.2549620219478701e+00
-9.9620219480804906e-03 8.2549620219478665e+00
ITEM: ATOMS id type xs ys zs
1 1 0.125 0.125 0.125
3 3 0.257678 0.254496 0.254496
15 3 0.492322 0.254496 0.495504
26 3 0.492322 0.495504 0.254496
55 3 0.257678 0.495504 0.495504
29 2 0.5 7.43478e-12 -6.96857e-12
54 2 0.5 0.25 0.25
11 2 0.25 0.5 0.25
23 2 0.25 0.25 0.5
38 2 -1.91899e-13 7.45429e-12 0.5
2 2 0.5 0.5 0.5
4 1 0.875 0.375 0.375
32 3 0.507678 0.00449556 0.245504
33 3 0.742322 0.245504 0.245504
50 3 0.507678 0.245504 0.00449556
56 3 0.742322 0.00449556 0.00449556
12 3 0.00767788 0.745504 0.00449556
16 3 0.00767788 0.504496 0.245504
17 1 0.375 0.875 0.375
46 3 0.242322 0.504496 0.00449556
52 3 0.242322 0.745504 0.245504
47 2 0.75 1 0.25
45 2 1 0.75 0.25
20 1 0.625 0.625 0.125
41 3 0.992322 0.995504 0.254496
44 3 0.757678 0.754496 0.254496
48 3 0.992322 0.754496 0.495504
49 3 0.757678 0.995504 0.495504
40 2 0.75 0.75 0.5
24 3 0.00767788 0.00449556 0.745504
27 3 0.242322 0.00449556 0.504496
37 1 0.375 0.375 0.875
39 3 0.242322 0.245504 0.745504
42 3 0.00767788 0.245504 0.504496
31 2 0.75 0.25 1
51 2 1 0.5 1
21 2 1 0.25 0.75
7 1 0.625 0.125 0.625
22 3 0.757678 0.495504 0.995504
25 3 0.992322 0.254496 0.995504
34 3 0.992322 0.495504 0.754496
53 3 0.757678 0.254496 0.754496
18 2 0.75 0.5 0.75
8 2 0.25 0.75 1
35 2 0.25 1 0.75
9 3 0.492322 0.995504 0.754496
13 3 0.257678 0.995504 0.995504
28 1 0.125 0.625 0.625
30 3 0.257678 0.754496 0.754496
36 3 0.492322 0.754496 0.995504
5 2 0.5 0.75 0.75
6 3 0.742322 0.504496 0.504496
10 1 0.875 0.875 0.875
14 3 0.742322 0.745504 0.745504
19 3 0.507678 0.745504 0.504496
43 3 0.507678 0.504496 0.745504
ITEM: TIMESTEP
65000
ITEM: NUMBER OF ATOMS
56
ITEM: BOX BOUNDS pp pp pp
-3.2802059238875425e-01 8.5730205923888647e+00
-8.4897405746549026e-03 8.2534897405743948e+00
-8.4897405746424681e-03 8.2534897405744267e+00
ITEM: ATOMS id type xs ys zs
1 1 0.125 0.125 0.125
3 3 0.259751 0.258782 0.258782
15 3 0.490249 0.258782 0.491218
26 3 0.490249 0.491218 0.258782
55 3 0.259751 0.491218 0.491218
29 2 0.5 2.4415e-11 -2.23824e-11
54 2 0.5 0.25 0.25
11 2 0.25 0.5 0.25
23 2 0.25 0.25 0.5
38 2 6.37992e-13 2.43151e-11 0.5
2 2 0.5 0.5 0.5
4 1 0.875 0.375 0.375
32 3 0.509751 0.008782 0.241218
33 3 0.740249 0.241218 0.241218
50 3 0.509751 0.241218 0.008782
56 3 0.740249 0.008782 0.008782
12 3 0.00975109 0.741218 0.008782
16 3 0.00975109 0.508782 0.241218
17 1 0.375 0.875 0.375
46 3 0.240249 0.508782 0.008782
52 3 0.240249 0.741218 0.241218
47 2 0.75 1 0.25
45 2 1 0.75 0.25
20 1 0.625 0.625 0.125
41 3 0.990249 0.991218 0.258782
44 3 0.759751 0.758782 0.258782
48 3 0.990249 0.758782 0.491218
49 3 0.759751 0.991218 0.491218
40 2 0.75 0.75 0.5
24 3 0.00975109 0.008782 0.741218
27 3 0.240249 0.008782 0.508782
37 1 0.375 0.375 0.875
39 3 0.240249 0.241218 0.741218
42 3 0.00975109 0.241218 0.508782
31 2 0.75 0.25 1
51 2 1 0.5 1
21 2 1 0.25 0.75
7 1 0.625 0.125 0.625
22 3 0.759751 0.491218 0.991218
25 3 0.990249 0.258782 0.991218
34 3 0.990249 0.491218 0.758782
53 3 0.759751 0.258782 0.758782
18 2 0.75 0.5 0.75
8 2 0.25 0.75 1
35 2 0.25 1 0.75
9 3 0.490249 0.991218 0.758782
13 3 0.259751 0.991218 0.991218
28 1 0.125 0.625 0.625
30 3 0.259751 0.758782 0.758782
36 3 0.490249 0.758782 0.991218
5 2 0.5 0.75 0.75
6 3 0.740249 0.508782 0.508782
10 1 0.875 0.875 0.875
14 3 0.740249 0.741218 0.741218
19 3 0.509751 0.741218 0.508782
43 3 0.509751 0.508782 0.741218
ITEM: TIMESTEP
70000
ITEM: NUMBER OF ATOMS
56
ITEM: BOX BOUNDS pp pp pp
-3.4891701736945108e-01 8.5939170173695612e+00
2.3699161178409867e-03 8.2426300838816875e+00
2.3699161178498684e-03 8.2426300838817195e+00
ITEM: ATOMS id type xs ys zs
1 1 0.125 0.125 0.125
3 3 0.260363 0.259905 0.259905
15 3 0.489637 0.259905 0.490095
26 3 0.489637 0.490095 0.259905
55 3 0.260363 0.490095 0.490095
29 2 0.5 8.69982e-11 -7.3061e-11
54 2 0.5 0.25 0.25
11 2 0.25 0.5 0.25
23 2 0.25 0.25 0.5
38 2 5.12818e-12 8.69803e-11 0.5
2 2 0.5 0.5 0.5
4 1 0.875 0.375 0.375
32 3 0.510363 0.00990476 0.240095
33 3 0.739637 0.240095 0.240095
50 3 0.510363 0.240095 0.00990476
56 3 0.739637 0.00990476 0.00990476
12 3 0.0103625 0.740095 0.00990476
16 3 0.0103625 0.509905 0.240095
17 1 0.375 0.875 0.375
46 3 0.239637 0.509905 0.00990476
52 3 0.239637 0.740095 0.240095
47 2 0.75 1 0.25
45 2 1 0.75 0.25
20 1 0.625 0.625 0.125
41 3 0.989637 0.990095 0.259905
44 3 0.760363 0.759905 0.259905
48 3 0.989637 0.759905 0.490095
49 3 0.760363 0.990095 0.490095
40 2 0.75 0.75 0.5
24 3 0.0103625 0.00990476 0.740095
27 3 0.239637 0.00990476 0.509905
37 1 0.375 0.375 0.875
39 3 0.239637 0.240095 0.740095
42 3 0.0103625 0.240095 0.509905
31 2 0.75 0.25 1
51 2 1 0.5 1
21 2 1 0.25 0.75
7 1 0.625 0.125 0.625
22 3 0.760363 0.490095 0.990095
25 3 0.989637 0.259905 0.990095
34 3 0.989637 0.490095 0.759905
53 3 0.760363 0.259905 0.759905
18 2 0.75 0.5 0.75
8 2 0.25 0.75 1
35 2 0.25 1 0.75
9 3 0.489637 0.990095 0.759905
13 3 0.260363 0.990095 0.990095
28 1 0.125 0.625 0.625
30 3 0.260363 0.759905 0.759905
36 3 0.489637 0.759905 0.990095
5 2 0.5 0.75 0.75
6 3 0.739637 0.509905 0.509905
10 1 0.875 0.875 0.875
14 3 0.739637 0.740095 0.740095
19 3 0.510363 0.740095 0.509905
43 3 0.510363 0.509905 0.740095
ITEM: TIMESTEP
75000
ITEM: NUMBER OF ATOMS
56
ITEM: BOX BOUNDS pp pp pp
-3.6981344235014790e-01 8.6148134423502576e+00
-5.5613602171842302e-03 8.2505613602167820e+00
-5.5613602171211696e-03 8.2505613602167642e+00
ITEM: ATOMS id type xs ys zs
1 1 0.125 0.125 0.125
3 3 0.257422 0.25362 0.25362
15 3 0.492578 0.25362 0.49638
26 3 0.492578 0.49638 0.25362
55 3 0.257422 0.49638 0.49638
29 2 0.5 2.98699e-10 -2.20664e-10
54 2 0.5 0.25 0.25
11 2 0.25 0.5 0.25
23 2 0.25 0.25 0.5
38 2 3.3439e-11 2.98498e-10 0.5
2 2 0.5 0.5 0.5
4 1 0.875 0.375 0.375
32 3 0.507422 0.00361973 0.24638
33 3 0.742578 0.24638 0.24638
50 3 0.507422 0.24638 0.00361973
56 3 0.742578 0.00361973 0.00361973
12 3 0.00742204 0.74638 0.00361973
16 3 0.00742204 0.50362 0.24638
17 1 0.375 0.875 0.375
46 3 0.242578 0.50362 0.00361973
52 3 0.242578 0.74638 0.24638
47 2 0.75 1 0.25
45 2 1 0.75 0.25
20 1 0.625 0.625 0.125
41 3 0.992578 0.99638 0.25362
44 3 0.757422 0.75362 0.25362
48 3 0.992578 0.75362 0.49638
49 3 0.757422 0.99638 0.49638
40 2 0.75 0.75 0.5
24 3 0.00742204 0.00361973 0.74638
27 3 0.242578 0.00361973 0.50362
37 1 0.375 0.375 0.875
39 3 0.242578 0.24638 0.74638
42 3 0.00742204 0.24638 0.50362
31 2 0.75 0.25 1
51 2 1 0.5 1
21 2 1 0.25 0.75
7 1 0.625 0.125 0.625
22 3 0.757422 0.49638 0.99638
25 3 0.992578 0.25362 0.99638
34 3 0.992578 0.49638 0.75362
53 3 0.757422 0.25362 0.75362
18 2 0.75 0.5 0.75
8 2 0.25 0.75 1
35 2 0.25 1 0.75
9 3 0.492578 0.99638 0.75362
13 3 0.257422 0.99638 0.99638
28 1 0.125 0.625 0.625
30 3 0.257422 0.75362 0.75362
36 3 0.492578 0.75362 0.99638
5 2 0.5 0.75 0.75
6 3 0.742578 0.50362 0.50362
10 1 0.875 0.875 0.875
14 3 0.742578 0.74638 0.74638
19 3 0.507422 0.74638 0.50362
43 3 0.507422 0.50362 0.74638
ITEM: TIMESTEP
80000
ITEM: NUMBER OF ATOMS
56
ITEM: BOX BOUNDS pp pp pp
-3.9070986733084473e-01 8.6357098673309540e+00
5.6714733210760926e-03 8.2393285266785803e+00
5.6714733210911916e-03 8.2393285266786123e+00
ITEM: ATOMS id type xs ys zs
1 1 0.125 0.125 0.125
3 3 0.260904 0.261736 0.261736
15 3 0.489096 0.261736 0.488264
26 3 0.489096 0.488264 0.261736
55 3 0.260904 0.488264 0.488264
29 2 0.5 8.0584e-10 -5.21071e-10
54 2 0.5 0.25 0.25
11 2 0.25 0.5 0.25
23 2 0.25 0.25 0.5
38 2 4.00243e-10 8.05585e-10 0.5
2 2 0.5 0.5 0.5
4 1 0.875 0.375 0.375
32 3 0.510904 0.0117362 0.238264
33 3 0.739096 0.238264 0.238264
50 3 0.510904 0.238264 0.0117362
56 3 0.739096 0.0117362 0.0117362
12 3 0.0109039 0.738264 0.0117362
16 3 0.0109039 0.511736 0.238264
17 1 0.375 0.875 0.375
46 3 0.239096 0.511736 0.0117362
52 3 0.239096 0.738264 0.238264
47 2 0.75 1 0.25
45 2 1 0.75 0.25
20 1 0.625 0.625 0.125
41 3 0.989096 0.988264 0.261736
44 3 0.760904 0.761736 0.261736
48 3 0.989096 0.761736 0.488264
49 3 0.760904 0.988264 0.488264
40 2 0.75 0.75 0.5
24 3 0.0109039 0.0117362 0.738264
27 3 0.239096 0.0117362 0.511736
37 1 0.375 0.375 0.875
39 3 0.239096 0.238264 0.738264
42 3 0.0109039 0.238264 0.511736
31 2 0.75 0.25 1
51 2 1 0.5 1
21 2 1 0.25 0.75
7 1 0.625 0.125 0.625
22 3 0.760904 0.488264 0.988264
25 3 0.989096 0.261736 0.988264
34 3 0.989096 0.488264 0.761736
53 3 0.760904 0.261736 0.761736
18 2 0.75 0.5 0.75
8 2 0.25 0.75 1
35 2 0.25 1 0.75
9 3 0.489096 0.988264 0.761736
13 3 0.260904 0.988264 0.988264
28 1 0.125 0.625 0.625
30 3 0.260904 0.761736 0.761736
36 3 0.489096 0.761736 0.988264
5 2 0.5 0.75 0.75
6 3 0.739096 0.511736 0.511736
10 1 0.875 0.875 0.875
14 3 0.739096 0.738264 0.738264
19 3 0.510904 0.738264 0.511736
43 3 0.510904 0.511736 0.738264
ITEM: TIMESTEP
85000
ITEM: NUMBER OF ATOMS
56
ITEM: BOX BOUNDS pp pp pp
-4.1160629231154156e-01 8.6566062923116522e+00
5.8309062838608483e-03 8.2391690937157875e+00
5.8309062838350911e-03 8.2391690937158408e+00
ITEM: ATOMS id type xs ys zs
1 1 0.125 0.125 0.125
3 3 0.258693 0.256239 0.256239
15 3 0.491307 0.256239 0.493761
26 3 0.491307 0.493761 0.256239
55 3 0.258693 0.493761 0.493761
29 2 0.5 3.29186e-09 -7.7718e-11
54 2 0.5 0.25 0.25
11 2 0.25 0.5 0.25
23 2 0.25 0.25 0.5
38 2 2.50486e-09 3.29117e-09 0.5
2 2 0.5 0.5 0.5
4 1 0.875 0.375 0.375
32 3 0.508693 0.00623893 0.243761
33 3 0.741307 0.243761 0.243761
50 3 0.508693 0.243761 0.00623894
56 3 0.741307 0.00623894 0.00623893
12 3 0.00869341 0.743761 0.00623894
16 3 0.00869341 0.506239 0.243761
17 1 0.375 0.875 0.375
46 3 0.241307 0.506239 0.00623893
52 3 0.241307 0.743761 0.243761
47 2 0.75 1 0.25
45 2 1 0.75 0.25
20 1 0.625 0.625 0.125
41 3 0.991307 0.993761 0.256239
44 3 0.758693 0.756239 0.256239
48 3 0.991307 0.756239 0.493761
49 3 0.758693 0.993761 0.493761
40 2 0.75 0.75 0.5
24 3 0.00869341 0.00623893 0.743761
27 3 0.241307 0.00623894 0.506239
37 1 0.375 0.375 0.875
39 3 0.241307 0.243761 0.743761
42 3 0.00869341 0.243761 0.506239
31 2 0.75 0.25 1
51 2 1 0.5 1
21 2 1 0.25 0.75
7 1 0.625 0.125 0.625
22 3 0.758693 0.493761 0.993761
25 3 0.991307 0.256239 0.993761
34 3 0.991307 0.493761 0.756239
53 3 0.758693 0.256239 0.756239
18 2 0.75 0.5 0.75
8 2 0.25 0.75 1
35 2 0.25 1 0.75
9 3 0.491307 0.993761 0.756239
13 3 0.258693 0.993761 0.993761
28 1 0.125 0.625 0.625
30 3 0.258693 0.756239 0.756239
36 3 0.491307 0.756239 0.993761
5 2 0.5 0.75 0.75
6 3 0.741307 0.506239 0.506239
10 1 0.875 0.875 0.875
14 3 0.741307 0.743761 0.743761
19 3 0.508693 0.743761 0.506239
43 3 0.508693 0.506239 0.743761
ITEM: TIMESTEP