ITEM: TIMESTEP
5000
ITEM: NUMBER OF ATOMS
56
ITEM: BOX BOUNDS pp pp pp
-9.3294705637115616e-02 8.3382947056370718e+00
-6.6679384586912249e-02 8.3116793845867818e+00
-6.3870275992789161e-02 8.3088702759927813e+00
ITEM: ATOMS id type xs ys zs
1 1 0.11939 0.118853 0.12733
3 3 0.254465 0.257032 0.269011
26 3 0.477372 0.491335 0.240261
55 3 0.263314 0.475736 0.498595
42 3 0.0251502 0.249717 0.506371
15 3 0.500811 0.274599 0.483665
11 2 0.24272 0.510562 0.261978
46 3 0.248641 0.523487 0.0174451
23 2 0.258589 0.243396 0.505861
50 3 0.508056 0.243025 0.0199894
54 2 0.499828 0.241234 0.250153
4 1 0.882026 0.378211 0.386379
32 3 0.493684 -0.00288836 0.227251
33 3 0.752762 0.242166 0.264897
22 3 0.739294 0.488985 -0.0163034
47 2 0.744443 -0.0143207 0.251847
51 2 0.985828 0.495374 -0.00215309
56 3 0.749007 0.000193006 0.0200348
29 2 0.515377 1.00592 0.000905537
16 3 0.00977793 0.498843 0.22509
17 1 0.360368 0.874495 0.37526
52 3 0.217404 0.750535 0.253296
13 3 0.265131 1.01086 -0.00870771
2 2 0.499347 0.509626 0.487909
45 2 0.987418 0.734394 0.263118
41 3 1.00184 0.967895 0.263539
48 3 0.980669 0.754307 0.509933
20 1 0.616915 0.621445 0.120205
44 3 0.741615 0.762573 0.259195
49 3 0.745275 1.0033 0.490834
12 3 1.01051 0.732282 0.0203113
6 3 0.753649 0.531503 0.493108
40 2 0.741179 0.766694 0.497728
27 3 0.228525 0.0149967 0.506991
24 3 0.0183465 0.00414882 0.756319
35 2 0.253382 -0.00712776 0.749359
37 1 0.380594 0.367983 0.873012
39 3 0.258452 0.230496 0.746017
25 3 -0.00181142 0.25227 0.990668
31 2 0.762984 0.252507 1.00392
21 2 1.02655 0.252803 0.741901
7 1 0.619717 0.133062 0.619919
53 3 0.788835 0.244635 0.78165
8 2 0.256697 0.756086 1.00313
38 2 -0.00890666 0.996963 0.490105
9 3 0.501734 0.99973 0.768666
28 1 0.132776 0.623343 0.622013
30 3 0.260358 0.7466 0.766532
36 3 0.500159 0.758562 0.973921
5 2 0.491989 0.754608 0.745
43 3 0.505609 0.530591 0.738309
34 3 0.996677 0.489844 0.758409
10 1 0.875042 0.87205 0.880633
14 3 0.735057 0.737352 0.736689
18 2 0.736726 0.499564 0.726915
19 3 0.495425 0.745762 0.512625
ITEM: TIMESTEP
10000
ITEM: NUMBER OF ATOMS
56
ITEM: BOX BOUNDS pp pp pp
-1.1427089583333960e-01 8.3592708958332960e+00
-8.4015748563345483e-02 8.3290157485631635e+00
-7.0193978416273950e-02 8.3151939784162625e+00
ITEM: ATOMS id type xs ys zs
1 1 0.111233 0.119797 0.132043
3 3 0.262408 0.268111 0.245723
26 3 0.474012 0.504997 0.256483
55 3 0.272302 0.485836 0.502009
42 3 -0.00138155 0.251336 0.531789
15 3 0.499769 0.272512 0.499699
11 2 0.237957 0.50868 0.267218
46 3 0.230397 0.50312 0.00530008
23 2 0.257219 0.249365 0.501079
50 3 0.505902 0.242453 0.00832059
54 2 0.500005 0.273655 0.240461
4 1 0.873107 0.370112 0.381917
32 3 0.504354 0.0190244 0.237763
33 3 0.747255 0.235551 0.246504
22 3 0.749754 0.486563 -0.00850209
47 2 0.745181 -0.00292323 0.26052
51 2 0.985866 0.491155 -0.000400766
56 3 0.738081 0.0085264 0.0201157
29 2 0.50109 0.988728 -0.0108938
16 3 -0.00446354 0.509021 0.231639
17 1 0.378156 0.868898 0.363821
52 3 0.252049 0.735478 0.218065
13 3 0.259965 0.989713 -0.0121421
2 2 0.506091 0.511216 0.501573
45 2 1.00953 0.758908 0.237119
41 3 0.973917 0.998442 0.255453
48 3 0.989975 0.767264 0.484116
20 1 0.622179 0.621067 0.127704
44 3 0.749706 0.752552 0.266811
49 3 0.7541 0.975459 0.49521
12 3 1.0187 0.747268 0.00632755
6 3 0.740861 0.512639 0.508737
40 2 0.762944 0.738116 0.50011
27 3 0.229465 0.00683248 0.522313
24 3 -0.00405236 0.0257498 0.749071
35 2 0.228994 0.00638461 0.742711
37 1 0.365064 0.378185 0.885867
39 3 0.242432 0.245198 0.747638
25 3 -0.024422 0.254102 0.994256
31 2 0.735969 0.247837 1.00811
21 2 1.01645 0.256596 0.755622
7 1 0.617075 0.11981 0.626263
53 3 0.770145 0.254251 0.768758
8 2 0.258505 0.739631 0.975883
38 2 -0.00826701 0.998556 0.51011
9 3 0.4806 0.989538 0.748819
28 1 0.131805 0.640278 0.61362
30 3 0.271634 0.761906 0.744072
36 3 0.502908 0.757422 0.993994
5 2 0.517342 0.734861 0.752532
43 3 0.49069 0.506988 0.73992
34 3 1.00298 0.51263 0.746812
10 1 0.880662 0.874114 0.866239
14 3 0.764889 0.732579 0.736979
18 2 0.755217 0.48025 0.759412
19 3 0.529415 0.755484 0.505038
ITEM: TIMESTEP
15000
ITEM: NUMBER OF ATOMS
56
ITEM: BOX BOUNDS pp pp pp
-1.3524708602956359e-01 8.3802470860295202e+00
-5.9689799783573250e-02 8.3046897997835050e+00
-8.2622543231230416e-02 8.3276225432311755e+00
ITEM: ATOMS id type xs ys zs
1 1 0.129339 0.126304 0.131702
3 3 0.254932 0.24986 0.27043
26 3 0.479396 0.508425 0.243694
55 3 0.244889 0.492892 0.457924
42 3 0.00398875 0.241411 0.522068
15 3 0.493638 0.275502 0.486305
11 2 0.244879 0.505284 0.225201
46 3 0.232881 0.518028 -0.0138056
23 2 0.267465 0.255771 0.510433
50 3 0.524068 0.243194 0.00195023
54 2 0.503417 0.259686 0.243946
4 1 0.865472 0.377817 0.387822
32 3 0.514621 0.0185409 0.23696
33 3 0.739927 0.258038 0.246342
22 3 0.753198 0.497343 -0.00360839
47 2 0.742569 -0.0045515 0.251963
51 2 1.00612 0.498173 0.00337785
56 3 0.753605 0.00591528 0.0155443
29 2 0.510762 0.996922 -0.004306
16 3 0.00331647 0.501717 0.254064
17 1 0.378529 0.876699 0.368336
52 3 0.25347 0.72905 0.227004
13 3 0.248136 0.995352 -0.0247149
2 2 0.482609 0.507726 0.486889
45 2 1.00341 0.746755 0.274989
41 3 0.984947 0.994175 0.264425
48 3 0.995814 0.767327 0.502269
20 1 0.624757 0.631967 0.121406
44 3 0.756018 0.761564 0.255508
49 3 0.765626 0.999907 0.492687
12 3 0.993051 0.725571 0.0314727
6 3 0.723634 0.524231 0.508608
40 2 0.7512 0.748872 0.502716
27 3 0.238394 0.00984781 0.503807
24 3 -0.00281872 -0.00115465 0.740786
35 2 0.233327 -0.00236623 0.754068
37 1 0.374208 0.363645 0.873115
39 3 0.24306 0.219122 0.744832
25 3 -0.00503904 0.253501 0.984685
31 2 0.744055 0.252436 1.01068
21 2 1.00963 0.244167 0.740872
7 1 0.624838 0.122262 0.616092
53 3 0.756591 0.256336 0.766421
8 2 0.236909 0.753164 0.996098
38 2 0.00197752 1.00223 0.507711
9 3 0.491446 0.980847 0.743117
28 1 0.13626 0.618039 0.606992
30 3 0.280866 0.76134 0.723708
36 3 0.476037 0.747734 0.99485
5 2 0.508869 0.753576 0.75559
43 3 0.521651 0.491564 0.727806
34 3 0.997641 0.480307 0.760384
10 1 0.879038 0.857742 0.890146
14 3 0.754567 0.724093 0.74866
18 2 0.756187 0.488913 0.759619
19 3 0.511391 0.756275 0.519562
ITEM: TIMESTEP
20000
ITEM: NUMBER OF ATOMS
56
ITEM: BOX BOUNDS pp pp pp
-1.5622327622578755e-01 8.4012232762257444e+00
-6.6314235327685545e-02 8.3113142353276128e+00
-4.0181592108807784e-02 8.2851815921088061e+00
ITEM: ATOMS id type xs ys zs
1 1 0.150702 0.105598 0.141766
3 3 0.262389 0.274443 0.271157
26 3 0.496664 0.490278 0.270132
55 3 0.272988 0.510945 0.496482
42 3 0.0085527 0.227979 0.502435
15 3 0.485266 0.249605 0.476989
11 2 0.251348 0.52325 0.253059
46 3 0.219367 0.508009 0.0158862
23 2 0.25683 0.24915 0.513453
50 3 0.492247 0.209373 -0.00813553
54 2 0.492602 0.242014 0.244207
4 1 0.891399 0.359825 0.360668
32 3 0.541459 -0.000158758 0.263314
33 3 0.739689 0.233242 0.24621
22 3 0.750437 0.473794 -0.00738083
47 2 0.768615 0.00835259 0.24452
51 2 0.997015 0.49352 0.000746588
56 3 0.723562 -0.00862157 -0.000692053
29 2 0.479472 0.988576 0.0229491
16 3 0.018531 0.516733 0.243087
17 1 0.386287 0.880738 0.371018
52 3 0.243565 0.757265 0.251523
13 3 0.252062 0.98748 -0.0253591
2 2 0.494072 0.506851 0.513122
45 2 0.986691 0.758759 0.239849
41 3 1.00286 0.992603 0.265133
48 3 1.01037 0.772111 0.476274
20 1 0.62651 0.608756 0.137512
44 3 0.75474 0.756099 0.26174
49 3 0.756034 0.991775 0.47283
12 3 1.01801 0.740117 0.000473847
6 3 0.753196 0.518915 0.501328
40 2 0.762581 0.748567 0.503683
27 3 0.248756 0.0137445 0.497636
24 3 0.00182766 0.0101045 0.751502
35 2 0.243361 0.00650487 0.736461
37 1 0.368984 0.372998 0.89392
39 3 0.23057 0.231427 0.755592
25 3 -8.9351e-05 0.248603 0.999181
31 2 0.743694 0.231654 0.996546
21 2 1.0146 0.263128 0.736943
7 1 0.620701 0.136057 0.617312
53 3 0.768368 0.256348 0.759551
8 2 0.252236 0.75709 1.00315
38 2 -0.00576738 0.996035 0.492979
9 3 0.498083 1.0096 0.782257
28 1 0.134488 0.632971 0.631268
30 3 0.257072 0.763262 0.761514
36 3 0.49959 0.735838 0.978165
5 2 0.490046 0.749068 0.746775
43 3 0.496766 0.512637 0.759002
34 3 0.988016 0.51354 0.751269
10 1 0.877255 0.864755 0.883204
14 3 0.747295 0.722343 0.767524
18 2 0.744255 0.495085 0.738741
19 3 0.534646 0.736737 0.491486
ITEM: TIMESTEP
25000
ITEM: NUMBER OF ATOMS
56
ITEM: BOX BOUNDS pp pp pp
-1.7719946642201151e-01 8.4221994664219686e+00
-5.4101137794450693e-02 8.2991011377943771e+00
-5.3324956935163925e-02 8.2983249569351631e+00
ITEM: ATOMS id type xs ys zs
1 1 0.129897 0.12806 0.1169
3 3 0.247816 0.26318 0.251827
26 3 0.478976 0.502528 0.256062
55 3 0.268454 0.490582 0.501011
42 3 0.026778 0.246023 0.512704
15 3 0.508887 0.253633 0.492236
11 2 0.246789 0.51996 0.246659
46 3 0.234793 0.501154 0.0100194
23 2 0.252344 0.246534 0.498202
50 3 0.517584 0.23803 -0.00362501
54 2 0.507109 0.240046 0.262285
4 1 0.884106 0.362118 0.37294
32 3 0.510997 0.00897938 0.255466
33 3 0.745067 0.234794 0.242528
22 3 0.758047 0.492036 -0.00437869
47 2 0.767339 0.00145639 0.245474
51 2 0.999191 0.498926 -0.0068737
56 3 0.730174 0.0111509 0.0140598
29 2 0.49913 1.00453 -0.00517982
16 3 0.0215334 0.475983 0.232931
17 1 0.373449 0.880608 0.376191
52 3 0.239744 0.738629 0.24219
13 3 0.268562 1.00658 -0.0308642
2 2 0.488543 0.489551 0.49256
45 2 0.982045 0.739403 0.261466
41 3 1.01731 0.988519 0.274117
48 3 0.984998 0.750146 0.500584
20 1 0.624123 0.610433 0.134365
44 3 0.758329 0.760215 0.249506
49 3 0.733854 0.981359 0.481109
12 3 0.995614 0.734042 0.0339501
6 3 0.72766 0.502313 0.503336
40 2 0.722976 0.750211 0.496635
27 3 0.219952 0.0129611 0.500656
24 3 0.0427716 0.0132046 0.770654
35 2 0.257907 -0.00453681 0.730718
37 1 0.366857 0.364391 0.876004
39 3 0.240424 0.247269 0.731796
25 3 -0.0109563 0.272906 1.00193
31 2 0.764554 0.25467 0.999105
21 2 0.997703 0.252159 0.75592
7 1 0.623916 0.1282 0.635639
53 3 0.756461 0.272386 0.773207
8 2 0.234208 0.739063 0.998394
38 2 -0.00392739 1.00514 0.504378
9 3 0.494698 0.992076 0.768305
28 1 0.130057 0.627995 0.630677
30 3 0.278255 0.748563 0.76693
36 3 0.479736 0.74946 1.00143
5 2 0.514623 0.750435 0.750321
43 3 0.494278 0.516894 0.733755
34 3 1.00708 0.496207 0.760212
10 1 0.889812 0.876855 0.889273
14 3 0.769643 0.750912 0.738367
18 2 0.75368 0.517551 0.748752
19 3 0.497048 0.739045 0.496857
ITEM: TIMESTEP
30000
ITEM: NUMBER OF ATOMS
56
ITEM: BOX BOUNDS pp pp pp
-1.9817565661823550e-01 8.4431756566181928e+00
-7.5479320932113403e-02 8.3204793209321029e+00
-3.9692422330057653e-02 8.2846924223300498e+00
ITEM: ATOMS id type xs ys zs
1 1 0.119236 0.117794 0.117877
3 3 0.259414 0.240363 0.261964
26 3 0.481393 0.496182 0.257265
55 3 0.241621 0.485105 0.484755
42 3 -0.016602 0.236269 0.50765
15 3 0.470756 0.253888 0.501261
11 2 0.250442 0.493724 0.231488
46 3 0.248012 0.506691 0.00343715
23 2 0.229669 0.249245 0.494206
50 3 0.488507 0.237623 0.0221305
54 2 0.504722 0.246318 0.266012
4 1 0.871215 0.376517 0.369493
32 3 0.535722 0.00558843 0.249824
33 3 0.751357 0.250036 0.226335
22 3 0.780873 0.482884 0.00865473
47 2 0.751291 -0.001463 0.252496
51 2 1.00764 0.510271 -0.014688
56 3 0.718044 0.0115915 0.0141889
29 2 0.484495 0.996727 -0.00283025
16 3 0.0182508 0.489706 0.246133
17 1 0.373428 0.884619 0.368173
52 3 0.233647 0.729606 0.237542
13 3 0.24238 0.989993 -0.0168004
2 2 0.474068 0.495176 0.501941
45 2 1.00123 0.741851 0.242555
41 3 0.991603 0.992929 0.27412
48 3 0.979754 0.748538 0.496938
20 1 0.621114 0.630472 0.142652
44 3 0.745294 0.765751 0.267764
49 3 0.760195 0.983414 0.489922
12 3 1.01907 0.758549 0.00948598
6 3 0.737947 0.508969 0.501895
40 2 0.750289 0.749651 0.503455
27 3 0.226054 0.0159307 0.48389
24 3 0.02371 0.00789486 0.750551
35 2 0.25644 0.0138821 0.741206
37 1 0.377976 0.377768 0.879613
39 3 0.25852 0.247145 0.746309
25 3 -0.00223407 0.284699 1.01719
31 2 0.751327 0.25136 0.998606
21 2 1.00838 0.24675 0.755802
7 1 0.622185 0.121919 0.631884
53 3 0.787871 0.243046 0.761864
8 2 0.257009 0.758815 1.00572
38 2 -0.00263619 0.991953 0.509905
9 3 0.499063 0.989611 0.761956
28 1 0.117125 0.609696 0.626122
30 3 0.285468 0.766542 0.760626
36 3 0.508737 0.744484 0.986679
5 2 0.514388 0.751454 0.759983
43 3 0.529582 0.519908 0.748259
34 3 0.982785 0.487166 0.751442
10 1 0.881278 0.87745 0.882969
14 3 0.743456 0.742769 0.746402
18 2 0.753339 0.512323 0.731332
19 3 0.504024 0.751163 0.510547
ITEM: TIMESTEP
35000
ITEM: NUMBER OF ATOMS
56
ITEM: BOX BOUNDS pp pp pp
-2.1915184681445948e-01 8.4641518468144170e+00
-3.9250440076315840e-02 8.2842504400762067e+00
-5.5627003664791452e-02 8.3006270036647294e+00
ITEM: ATOMS id type xs ys zs
1 1 0.115217 0.125614 0.119251
3 3 0.244841 0.267225 0.26068
26 3 0.486542 0.482512 0.254384
55 3 0.241415 0.490915 0.479037
42 3 0.0141777 0.264302 0.520418
15 3 0.498598 0.264433 0.507527
11 2 0.251227 0.497866 0.244043
46 3 0.232869 0.489706 0.00470701
23 2 0.248234 0.273523 0.505603
50 3 0.536738 0.236407 0.00392272
54 2 0.501975 0.243876 0.259981
4 1 0.875054 0.380059 0.39121
32 3 0.519429 -0.00648127 0.240541
33 3 0.732401 0.249006 0.271122
22 3 0.760806 0.484623 0.00565187
47 2 0.747912 -0.00311438 0.231858
51 2 1.00564 0.49465 -0.00124907
56 3 0.725749 -0.00397363 -0.00692659
29 2 0.496296 1.00295 0.0041959
16 3 0.0113743 0.506152 0.255243
17 1 0.383445 0.87755 0.372855
52 3 0.214547 0.754848 0.253078
13 3 0.25894 0.995517 -0.0133169
2 2 0.490112 0.517538 0.487834
45 2 0.993398 0.757875 0.244805
41 3 0.998757 0.981959 0.264723
48 3 1.01003 0.772169 0.481018
20 1 0.619226 0.622616 0.124452
44 3 0.751723 0.757477 0.255723
49 3 0.763498 0.996996 0.465468
12 3 1.00523 0.743173 0.00879031
6 3 0.735535 0.523972 0.525429
40 2 0.728054 0.756664 0.487931
27 3 0.261841 0.0319897 0.499373
24 3 0.0311146 0.00502776 0.732633
35 2 0.269247 0.00300459 0.73875
37 1 0.382052 0.350501 0.885077
39 3 0.236642 0.248159 0.747742
25 3 0.005063 0.26172 0.991051
31 2 0.766985 0.244438 1.00598
21 2 1.00717 0.243941 0.75312
7 1 0.64923 0.114239 0.624949
53 3 0.779188 0.248162 0.762336
8 2 0.23567 0.751171 1.00179
38 2 0.0124692 1.01211 0.502311
9 3 0.513078 0.969985 0.757227
28 1 0.133612 0.627508 0.624863
30 3 0.251016 0.763404 0.757579
36 3 0.480218 0.756546 0.996904
5 2 0.487126 0.712959 0.761496
43 3 0.515304 0.484179 0.748375
34 3 1.00289 0.483856 0.768784
10 1 0.886151 0.879207 0.865012
14 3 0.720396 0.73824 0.753166
18 2 0.741505 0.494758 0.750455
19 3 0.499282 0.75319 0.516715
ITEM: TIMESTEP
40000
ITEM: NUMBER OF ATOMS
56
ITEM: BOX BOUNDS pp pp pp
-2.4012803701068341e-01 8.4851280370106412e+00
-6.0208985378019442e-02 8.3052089853779130e+00
-1.6095397304399128e-02 8.2610953973042811e+00
ITEM: ATOMS id type xs ys zs
1 1 0.124256 0.136941 0.147398
3 3 0.271858 0.2687 0.268462
26 3 0.481295 0.499417 0.250604
55 3 0.260164 0.472772 0.481402
42 3 0.000143356 0.242797 0.51493
15 3 0.496081 0.236777 0.475158
11 2 0.243843 0.498122 0.235007
46 3 0.263026 0.540453 0.00623049
23 2 0.241204 0.232924 0.514027
50 3 0.495259 0.244028 0.00353372
54 2 0.51871 0.258817 0.237381
4 1 0.867393 0.373113 0.380323
32 3 0.502524 0.00662495 0.235427
33 3 0.756044 0.238137 0.233915
22 3 0.777654 0.503621 -0.031788
47 2 0.747601 0.00931665 0.241668
51 2 0.991927 0.495837 0.0160934
56 3 0.76945 0.0223877 0.0155943
29 2 0.502925 0.998195 0.0137258
16 3 0.0093913 0.515585 0.254009
17 1 0.378457 0.878492 0.380606
52 3 0.236114 0.75063 0.24166
13 3 0.271246 1.0079 0.0140163
2 2 0.502264 0.485193 0.489313
45 2 0.994681 0.757327 0.243353
41 3 0.984259 1.01347 0.279835
48 3 0.987386 0.761787 0.49937
20 1 0.627053 0.620007 0.122804
44 3 0.744151 0.763628 0.252385
49 3 0.765629 0.99399 0.491121
12 3 0.991091 0.717875 -0.00265878
6 3 0.751582 0.530529 0.492611
40 2 0.74391 0.761247 0.506569
27 3 0.224659 -0.00123906 0.507766
24 3 0.0272483 0.00223937 0.758998
35 2 0.249495 0.00996472 0.756905
37 1 0.383707 0.390396 0.867425
39 3 0.23522 0.247246 0.745717
25 3 -0.00518748 0.252942 1.0116
31 2 0.758568 0.247093 1.00213
21 2 0.991649 0.24812 0.758835
7 1 0.633698 0.115174 0.623915
53 3 0.749153 0.266081 0.752099
8 2 0.219042 0.770412 0.988287
38 2 -0.00473161 0.988122 0.519082
9 3 0.501911 0.985089 0.754288
28 1 0.136058 0.610458 0.624104
30 3 0.262547 0.749208 0.753254
36 3 0.502811 0.767493 0.987474
5 2 0.49177 0.736985 0.744037
43 3 0.531786 0.498718 0.735284
34 3 1.01153 0.466137 0.760865
10 1 0.878332 0.867136 0.883469
14 3 0.741069 0.732837 0.74803
18 2 0.776751 0.496293 0.732419
19 3 0.49471 0.726446 0.49979
ITEM: TIMESTEP
45000
ITEM: NUMBER OF ATOMS
56
ITEM: BOX BOUNDS pp pp pp
-2.6110422720690740e-01 8.5061042272068637e+00
-3.3271804820516060e-02 8.2782718048203101e+00
-5.8534666840150962e-02 8.3035346668401466e+00
ITEM: ATOMS id type xs ys zs
1 1 0.115662 0.126053 0.123762
3 3 0.248826 0.258497 0.249892
26 3 0.47322 0.492823 0.244801
55 3 0.258036 0.504556 0.48133
42 3 0.0160181 0.24376 0.525415
15 3 0.474002 0.270921 0.479164
11 2 0.248234 0.486717 0.249914
46 3 0.263073 0.502907 0.0149498
23 2 0.2483 0.25532 0.501662
50 3 0.507692 0.237983 -0.0038175
54 2 0.498228 0.26198 0.239823
4 1 0.872066 0.377282 0.390825
32 3 0.50364 0.00108646 0.236775
33 3 0.753141 0.21621 0.249235
22 3 0.776696 0.490951 -0.0157626
47 2 0.73487 -0.015841 0.243698
51 2 1.0184 0.496994 0.00562737
56 3 0.722559 -0.00406781 0.0082941
29 2 0.488045 0.993672 -0.00368073
16 3 0.0065915 0.52824 0.257336
17 1 0.361421 0.867733 0.378424
52 3 0.251008 0.724694 0.243987
13 3 0.254141 0.992608 -0.0120761
2 2 0.503718 0.500723 0.483926
45 2 0.987803 0.751947 0.26048
41 3 0.981409 0.993119 0.24965
48 3 0.964534 0.761074 0.50536
20 1 0.620728 0.615643 0.119701
44 3 0.749074 0.737173 0.276989
49 3 0.771535 1.0032 0.486128
12 3 1.01979 0.74695 0.031026
6 3 0.732811 0.520381 0.502678
40 2 0.7345 0.753683 0.521982
27 3 0.255873 0.00801794 0.519496
24 3 0.0133162 0.0124461 0.73159
35 2 0.252373 0.00919097 0.7517
37 1 0.378741 0.371019 0.870168
39 3 0.235433 0.24312 0.73571
25 3 -0.0193023 0.237504 0.979563
31 2 0.748082 0.254598 0.997609
21 2 1.01073 0.244039 0.741035
7 1 0.618333 0.133747 0.613871
53 3 0.755133 0.244122 0.759804
8 2 0.255257 0.761056 1.01197
38 2 0.00759379 1.00005 0.50669
9 3 0.480571 1.00842 0.753698
28 1 0.125891 0.649793 0.636481
30 3 0.284466 0.766938 0.743902
36 3 0.520595 0.76824 0.980877
5 2 0.502462 0.758869 0.739428
43 3 0.503556 0.513556 0.742866
34 3 1.00771 0.490476 0.762359
10 1 0.883481 0.87139 0.873997
14 3 0.74583 0.737543 0.760934
18 2 0.764195 0.487362 0.749679
19 3 0.489701 0.739833 0.509427
ITEM: TIMESTEP
50000
ITEM: NUMBER OF ATOMS
56
ITEM: BOX BOUNDS pp pp pp
-2.8208041740313139e-01 8.5270804174030879e+00
-3.9002573501237592e-02 8.2840025735010752e+00
-5.6563962576432480e-02 8.3015639625764095e+00
ITEM: ATOMS id type xs ys zs
1 1 0.124625 0.1272 0.113891
3 3 0.257219 0.249518 0.249975
26 3 0.457695 0.503425 0.258282
55 3 0.251072 0.475098 0.504362
42 3 0.0351111 0.253719 0.488483
15 3 0.50786 0.28048 0.489492
11 2 0.225591 0.506384 0.276216
46 3 0.235501 0.500891 0.0156382
23 2 0.28371 0.235731 0.498058
50 3 0.526619 0.244042 -0.0103859
54 2 0.478344 0.264756 0.258832
4 1 0.879835 0.371675 0.375668
32 3 0.505521 0.0248904 0.252007
33 3 0.75678 0.236547 0.229451
22 3 0.744589 0.496703 -0.00537367
47 2 0.734274 0.00151987 0.250324
51 2 1.0012 0.496041 -0.00287352
56 3 0.753101 0.016363 -0.00745622
29 2 0.512793 1.00665 -0.0045368
16 3 -0.00668129 0.517686 0.237003
17 1 0.376792 0.897182 0.377077
52 3 0.254624 0.767178 0.234236
13 3 0.26671 0.99225 -0.00615586
2 2 0.482452 0.511942 0.504089
45 2 0.995616 0.742565 0.254249
41 3 0.978403 0.996504 0.248977
48 3 1.01124 0.766849 0.496589
20 1 0.617321 0.622754 0.138752
44 3 0.768768 0.740775 0.271907
49 3 0.762417 0.985192 0.487552
12 3 1.01674 0.742457 0.00728364
6 3 0.734315 0.496784 0.507143
40 2 0.784071 0.74944 0.507433
27 3 0.234489 0.00110695 0.50992
24 3 0.010175 -0.00425815 0.733335
35 2 0.247125 -0.0085187 0.760047
37 1 0.369871 0.371876 0.880393
39 3 0.255612 0.232332 0.731284
25 3 0.00411079 0.267543 0.988132
31 2 0.762312 0.235842 0.993968
21 2 0.98502 0.245117 0.726943
7 1 0.623235 0.141774 0.609209
53 3 0.763595 0.247471 0.745672
8 2 0.254038 0.740033 0.999083
38 2 -0.00347989 1.01057 0.4948
9 3 0.486449 1.01302 0.74912
28 1 0.118065 0.614178 0.620088
30 3 0.259365 0.743169 0.756661
36 3 0.486906 0.760683 0.996679
5 2 0.506432 0.76464 0.759092
43 3 0.503673 0.521412 0.740984
34 3 0.974039 0.476185 0.761488
10 1 0.881289 0.878553 0.873932
14 3 0.744415 0.732252 0.746308
18 2 0.742621 0.485953 0.746697
19 3 0.490528 0.749714 0.519189
ITEM: TIMESTEP
55000
ITEM: NUMBER OF ATOMS
56
ITEM: BOX BOUNDS pp pp pp
-3.0305660759935538e-01 8.5480566075993121e+00
-2.8567441163019680e-02 8.2735674411628111e+00
-3.1476603465112163e-02 8.2764766034651061e+00
ITEM: ATOMS id type xs ys zs
1 1 0.111334 0.113282 0.115766
3 3 0.262905 0.231259 0.266112
26 3 0.460017 0.496585 0.261899
15 3 0.498005 0.278739 0.497605
11 2 0.229324 0.483535 0.25542
23 2 0.244196 0.248436 0.509615
54 2 0.498701 0.25107 0.241692
32 3 0.506877 0.0137795 0.230603
51 2 -0.0100247 0.499503 0.00703
4 1 0.869496 0.380332 0.381516
33 3 0.726831 0.232253 0.256652
47 2 0.738802 0.000351832 0.236574
38 2 0.991437 0.00792117 0.505119
46 3 0.21784 0.483825 0.0151831
16 3 -0.0177891 0.529321 0.246621
17 1 0.363175 0.87594 0.36005
52 3 0.252692 0.709033 0.234546
45 2 0.00378628 0.767459 0.250199
12 3 0.0454925 0.754695 0.0173767
56 3 0.751936 0.997973 0.00972974
41 3 0.98336 0.994153 0.263273
48 3 0.991532 0.766772 0.491415
20 1 0.623846 0.629755 0.133264
44 3 0.757037 0.753444 0.265895
49 3 0.742844 1.00177 0.487259
55 3 0.229819 0.497826 0.486367
27 3 0.229012 0.00705279 0.509435
35 2 0.274492 0.0137247 0.75003
37 1 0.368457 0.370518 0.870652
39 3 0.225148 0.25451 0.742473
42 3 1.00708 0.239579 0.497356
50 3 0.524962 0.233386 1.00177
22 3 0.754119 0.482337 0.995847
29 2 0.517469 -0.0160327 1.00336
2 2 0.491748 0.507886 0.48919
24 3 1.02073 0.0129645 0.738337
25 3 0.989783 0.24877 0.986323
31 2 0.751701 0.2422 0.998804
21 2 0.998547 0.261305 0.758827
7 1 0.627532 0.127737 0.628108
53 3 0.761425 0.267909 0.765659
13 3 0.238874 0.973364 0.981404
8 2 0.285891 0.750098 1.00416
9 3 0.50474 0.976527 0.751926
28 1 0.116517 0.633097 0.638997
30 3 0.259463 0.773522 0.756517
36 3 0.525037 0.742517 0.978159
5 2 0.497418 0.733493 0.742726
6 3 0.721343 0.514681 0.496714
40 2 0.760953 0.753766 0.505121
43 3 0.509978 0.490533 0.743404
34 3 0.990397 0.498465 0.765679
10 1 0.876537 0.860844 0.879612
14 3 0.730149 0.741788 0.741663
18 2 0.750227 0.508586 0.745698
19 3 0.532359 0.758673 0.501088
ITEM: TIMESTEP
60000
ITEM: NUMBER OF ATOMS
56
ITEM: BOX BOUNDS pp pp pp
-3.2403279779557936e-01 8.5690327977955363e+00
-3.4013054856190550e-02 8.2790130548559944e+00
-1.7010802188801577e-03 8.2467010802188003e+00
ITEM: ATOMS id type xs ys zs
1 1 0.130522 0.127536 0.136343
3 3 0.286458 0.25774 0.26492
26 3 0.506478 0.492144 0.253574
15 3 0.502584 0.25262 0.488914
11 2 0.253762 0.496706 0.2659
23 2 0.245548 0.257762 0.496107
54 2 0.514149 0.239779 0.253344
32 3 0.511489 0.00847847 0.245879
51 2 -0.0133182 0.511476 0.0154412
4 1 0.884786 0.372395 0.373693
33 3 0.754046 0.234802 0.243414
47 2 0.779868 -0.0083155 0.231309
38 2 1.00903 -0.0139757 0.494122
46 3 0.233611 0.491403 0.0233993
16 3 0.039874 0.480069 0.246557
17 1 0.374402 0.870701 0.383403
52 3 0.23151 0.739761 0.237861
45 2 -0.0253063 0.747443 0.237546
12 3 0.00911317 0.758246 0.00598797
56 3 0.731406 1.01197 0.00166228
41 3 1.00795 0.974197 0.252289
48 3 0.98808 0.754073 0.488566
20 1 0.620609 0.622471 0.105125
44 3 0.743137 0.760301 0.239473
49 3 0.758737 0.973263 0.502517
55 3 0.246971 0.488535 0.504047
27 3 0.222646 0.0223275 0.497225
35 2 0.253369 0.0160453 0.749844
37 1 0.374699 0.370766 0.88458
39 3 0.24757 0.246711 0.748651
42 3 1.01199 0.250755 0.51422
50 3 0.53551 0.259369 1.01603
22 3 0.761858 0.48869 0.982713
29 2 0.478191 0.00692824 1.01818
2 2 0.507434 0.495822 0.492801
24 3 0.996224 0.0225361 0.73105
25 3 1.01504 0.276164 1.01341
31 2 0.771183 0.242534 1.01039
21 2 0.995622 0.287955 0.761422
7 1 0.610048 0.119884 0.630856
53 3 0.741472 0.262331 0.758531
13 3 0.241382 0.969885 0.99849
8 2 0.231417 0.727865 0.992129
9 3 0.48088 0.984722 0.766937
28 1 0.126299 0.640908 0.622241
30 3 0.262894 0.771268 0.747005
36 3 0.46718 0.759224 1.00709
5 2 0.497838 0.745909 0.751485
6 3 0.734485 0.492599 0.503923
40 2 0.749245 0.740356 0.474227
43 3 0.492322 0.515868 0.745176
34 3 0.987114 0.511533 0.764068
10 1 0.87168 0.883543 0.868025
14 3 0.739192 0.756663 0.730323
18 2 0.751039 0.499669 0.747944
19 3 0.517024 0.748939 0.501076
ITEM: TIMESTEP
65000
ITEM: NUMBER OF ATOMS
56
ITEM: BOX BOUNDS pp pp pp
-3.4500898799180330e-01 8.5900089879917605e+00
-5.5958147038055905e-02 8.3009581470377647e+00
-2.3902413175617809e-02 8.2689024131755389e+00
ITEM: ATOMS id type xs ys zs
1 1 0.121604 0.136154 0.115014
3 3 0.263531 0.26317 0.24504
26 3 0.493773 0.493657 0.257153
15 3 0.481324 0.223165 0.476349
11 2 0.272138 0.512214 0.259145
23 2 0.252748 0.234877 0.496883
54 2 0.492006 0.252498 0.231576
32 3 0.52218 0.00133922 0.241093
51 2 0.00972411 0.506051 -0.0163136
4 1 0.878227 0.378863 0.382632
33 3 0.726862 0.249068 0.239206
47 2 0.741776 0.00808479 0.24333
38 2 1.0073 -0.0175969 0.506639
46 3 0.240577 0.519689 0.0125082
16 3 0.0179342 0.50252 0.216533
17 1 0.373804 0.879042 0.381648
52 3 0.248688 0.756586 0.232846
45 2 -0.00986184 0.755212 0.257599
12 3 0.0298501 0.751018 0.00334686
56 3 0.720417 0.987728 0.0160441
41 3 1.00534 0.984458 0.269995
48 3 0.961384 0.743517 0.479055
20 1 0.624054 0.621047 0.124523
44 3 0.74342 0.774462 0.250959
49 3 0.764262 1.00028 0.478406
55 3 0.266154 0.471378 0.49914
27 3 0.260507 0.0135173 0.528326
35 2 0.245764 0.000250105 0.762059
37 1 0.377371 0.390915 0.886552
39 3 0.250511 0.243413 0.742652
42 3 1.02069 0.231546 0.501127
50 3 0.498388 0.22543 1.00597
22 3 0.762406 0.469272 1.00335
29 2 0.510085 -0.00255645 1.00734
2 2 0.495189 0.486715 0.511584
24 3 1.0039 0.00824168 0.755224
25 3 0.975455 0.264797 1.00273
31 2 0.743681 0.2344 0.981996
21 2 1.02266 0.2574 0.762691
7 1 0.633009 0.11702 0.621962
53 3 0.784 0.257376 0.742617
13 3 0.256776 0.994132 0.996729
8 2 0.260576 0.755956 0.989274
9 3 0.483535 1.00155 0.75957
28 1 0.128073 0.622893 0.603417
30 3 0.240879 0.762722 0.759613
36 3 0.506347 0.757902 0.9919
5 2 0.478043 0.763159 0.747736
6 3 0.774239 0.525608 0.528027
40 2 0.731423 0.756948 0.490631
43 3 0.491144 0.529976 0.75241
34 3 0.980203 0.492775 0.758894
10 1 0.880217 0.873021 0.883396
14 3 0.744866 0.745727 0.741877
18 2 0.740159 0.501895 0.772938
19 3 0.495994 0.726854 0.494125
ITEM: TIMESTEP
70000
ITEM: NUMBER OF ATOMS
56
ITEM: BOX BOUNDS pp pp pp
-3.6598517818802734e-01 8.6109851781879847e+00
-3.1512981188921430e-02 8.2765129811887164e+00
-4.7366694632905215e-02 8.2923666946329817e+00
ITEM: ATOMS id type xs ys zs
1 1 0.13127 0.130958 0.118413
3 3 0.280516 0.259776 0.249331
26 3 0.521382 0.470651 0.269479
15 3 0.484154 0.250158 0.500016
11 2 0.269974 0.499527 0.247398
23 2 0.232195 0.254023 0.490562
54 2 0.500654 0.243528 0.262213
32 3 0.489232 0.00491804 0.23531
51 2 -0.00171678 0.478827 0.00446112
4 1 0.886848 0.383303 0.368941
33 3 0.75146 0.246659 0.236927
47 2 0.756144 -0.00200884 0.240317
38 2 0.983835 -0.00433391 0.504624
46 3 0.243331 0.519937 0.00338937
16 3 0.0371346 0.504353 0.234876
17 1 0.385498 0.87418 0.379231
52 3 0.252725 0.754156 0.24905
45 2 0.0175809 0.739758 0.258081
12 3 0.0102936 0.742959 0.0119508
56 3 0.736148 0.992552 0.00858429
41 3 1.00164 0.992929 0.278698
48 3 0.989534 0.752445 0.491207
20 1 0.62942 0.62168 0.119626
44 3 0.750765 0.755085 0.253776
49 3 0.768223 0.989773 0.487742
55 3 0.254022 0.489145 0.482316
27 3 0.258309 0.010625 0.527783
35 2 0.253056 0.0208452 0.757672
37 1 0.383551 0.368369 0.880047
39 3 0.230735 0.254338 0.735096
42 3 1.00296 0.236641 0.524037
50 3 0.49545 0.226616 1.01456
22 3 0.762894 0.490832 0.977395
29 2 0.49244 0.00327224 1.00903
2 2 0.483756 0.4957 0.491945
24 3 1.00085 0.025617 0.754104
25 3 0.976133 0.247236 0.988113
31 2 0.73606 0.248423 0.994785
21 2 1.00239 0.261529 0.752641
7 1 0.62994 0.115566 0.617399
53 3 0.774585 0.266583 0.750685
13 3 0.269614 0.986793 1.0026
8 2 0.232922 0.757784 1.00988
9 3 0.491691 0.994215 0.76798
28 1 0.131207 0.632277 0.627361
30 3 0.255648 0.772142 0.7621
36 3 0.481598 0.764965 1.00581
5 2 0.491777 0.766472 0.745999
6 3 0.742917 0.512249 0.494224
40 2 0.767099 0.737346 0.478232
43 3 0.515395 0.495646 0.734254
34 3 0.979808 0.506078 0.753684
10 1 0.87881 0.877191 0.881386
14 3 0.749578 0.734622 0.748484
18 2 0.746675 0.499134 0.74204
19 3 0.537471 0.748376 0.504462
ITEM: TIMESTEP
75000
ITEM: NUMBER OF ATOMS
56
ITEM: BOX BOUNDS pp pp pp
-3.8696136838425127e-01 8.6319613683842089e+00
-4.2385802657772587e-02 8.2873858026576546e+00
-1.0889542872809521e-02 8.2558895428728505e+00
ITEM: ATOMS id type xs ys zs
1 1 0.121807 0.129843 0.123316
3 3 0.253546 0.256396 0.252827
26 3 0.470553 0.510913 0.282984
15 3 0.477984 0.251311 0.492823
11 2 0.257388 0.490366 0.234149
23 2 0.224053 0.261461 0.48967
54 2 0.476132 0.266682 0.247463
32 3 0.488786 0.0281063 0.220177
51 2 0.00151082 0.508547 0.00689113
4 1 0.863765 0.363943 0.377999
33 3 0.737353 0.237463 0.249453
47 2 0.728716 -0.00953498 0.248359
38 2 1.02875 -0.0137337 0.499631
46 3 0.237729 0.494065 -0.011012
16 3 0.0284439 0.523748 0.247359
17 1 0.370057 0.881819 0.359612
52 3 0.236756 0.748025 0.227923
45 2 -0.00723253 0.753917 0.249141
12 3 0.0436522 0.745571 0.0232396
56 3 0.74362 1.00312 0.00394186
41 3 1.01173 0.986425 0.251236
48 3 1.01743 0.752787 0.486028
20 1 0.625431 0.626933 0.137127
44 3 0.756137 0.750073 0.269362
49 3 0.778111 0.987806 0.493013
55 3 0.253526 0.500969 0.463466
27 3 0.245271 0.00879276 0.510659
35 2 0.250193 0.00518316 0.748816
37 1 0.374488 0.360809 0.873913
39 3 0.236568 0.24458 0.741052
42 3 1.00198 0.240131 0.51629
50 3 0.528793 0.246899 1.00737
22 3 0.728835 0.476264 0.997298
29 2 0.495941 0.0175761 0.982955
2 2 0.470079 0.49061 0.51631
24 3 1.01694 0.0132125 0.744762
25 3 0.980588 0.262505 0.998842
31 2 0.755452 0.249821 1.00766
21 2 1.0169 0.248056 0.761892
7 1 0.619455 0.114051 0.607966