ITEM: TIMESTEP
5000
ITEM: NUMBER OF ATOMS
56
ITEM: BOX BOUNDS pp pp pp
-1.1790369647093435e-01 8.3629036964705019e+00
-8.8372279649095165e-02 8.3333722796487280e+00
0.0000000000000000e+00 8.2449999999999992e+00
ITEM: ATOMS id type xs ys zs
1 1 0.126251 0.135052 0.117549
3 3 0.263916 0.257112 0.274103
11 2 0.21924 0.493136 0.254298
15 3 0.50399 0.269334 0.506367
54 2 0.502372 0.248733 0.253079
51 2 -0.0262204 0.52238 -0.0116329
50 3 0.522437 0.251385 0.00356032
2 2 0.503757 0.502251 0.507415
4 1 0.87741 0.380664 0.371233
31 2 0.752984 0.243169 -0.000198152
32 3 0.518117 0.00635796 0.236568
33 3 0.756621 0.233872 0.225774
56 3 0.736986 -0.00679548 -0.00827768
22 3 0.749262 0.48495 -0.00339668
38 2 1.00115 0.0101417 0.490359
26 3 0.455522 0.493656 0.258832
46 3 0.227934 0.504088 0.0197303
41 3 -0.000831957 1.00626 0.263538
55 3 0.271304 0.477217 0.508751
17 1 0.374051 0.865357 0.362036
45 2 0.00601786 0.760693 0.25134
52 3 0.243524 0.725796 0.239927
13 3 0.245245 0.994492 -0.0208457
47 2 0.750514 0.993043 0.249423
49 3 0.75468 1.00712 0.490346
16 3 0.982797 0.519431 0.227129
29 2 0.50566 1.01019 -0.0030582
20 1 0.610423 0.622632 0.129688
44 3 0.759789 0.753248 0.26163
48 3 0.986372 0.779401 0.502225
40 2 0.756874 0.742407 0.494554
19 3 0.519687 0.745338 0.493094
12 3 1.02801 0.756221 0.0132883
23 2 0.279309 0.243212 0.514313
27 3 0.236707 -0.00794012 0.496843
35 2 0.2352 0.00593426 0.74566
37 1 0.36677 0.374401 0.885275
39 3 0.234392 0.23972 0.752609
42 3 0.0181167 0.234453 0.508334
24 3 0.00471815 5.19808e-05 0.733196
34 3 -0.00618194 0.477617 0.736603
21 2 1.00721 0.232428 0.762416
7 1 0.616803 0.12543 0.627198
25 3 0.988573 0.282911 1.00371
53 3 0.759397 0.25082 0.752838
43 3 0.496529 0.508969 0.732047
8 2 0.257852 0.732174 0.996304
28 1 0.116906 0.620215 0.618248
30 3 0.252997 0.744075 0.757816
36 3 0.504807 0.783486 0.995613
5 2 0.494838 0.771961 0.74898
9 3 0.488448 0.996647 0.761885
6 3 0.746623 0.490241 0.520513
10 1 0.886084 0.867383 0.867713
14 3 0.746483 0.73542 0.739767
18 2 0.757328 0.490732 0.754033
ITEM: TIMESTEP
10000
ITEM: NUMBER OF ATOMS
56
ITEM: BOX BOUNDS pp pp pp
-7.8221471763923134e-02 8.3232214717634569e+00
-9.8873731790471070e-02 8.3438737317901044e+00
0.0000000000000000e+00 8.2449999999999992e+00
ITEM: ATOMS id type xs ys zs
1 1 0.129159 0.130256 0.121952
3 3 0.260358 0.270341 0.254076
11 2 0.242189 0.502134 0.26961
15 3 0.509986 0.269438 0.485471
54 2 0.507646 0.253998 0.244692
51 2 0.0100772 0.49043 0.00924627
50 3 0.507274 0.24428 0.00593906
2 2 0.487985 0.5039 0.513846
4 1 0.861204 0.377409 0.385392
31 2 0.750646 0.245649 -0.0157661
32 3 0.516714 0.00341945 0.232401
33 3 0.729792 0.254123 0.244455
56 3 0.740214 0.00645367 0.00177284
22 3 0.73749 0.484915 0.000222527
38 2 0.992229 0.00148155 0.489003
26 3 0.497808 0.504109 0.27618
46 3 0.233806 0.5068 0.0173388
41 3 -0.0105138 0.993068 0.239732
55 3 0.250808 0.473933 0.514015
17 1 0.374978 0.88075 0.371225
45 2 -0.00774244 0.753684 0.255713
52 3 0.236183 0.751784 0.242346
13 3 0.259338 0.988901 -0.0265553
47 2 0.764762 1.01603 0.250075
49 3 0.766505 0.982804 0.497109
16 3 1.0081 0.516534 0.251257
29 2 0.488128 0.995222 0.00343736
20 1 0.612783 0.638206 0.134739
44 3 0.743099 0.783265 0.247368
48 3 1.0032 0.770721 0.500501
40 2 0.76586 0.728681 0.479197
19 3 0.52185 0.742939 0.49362
12 3 1.00355 0.751793 0.00399589
23 2 0.25282 0.235192 0.494254
27 3 0.247874 -0.00683111 0.519958
35 2 0.241706 -0.00341895 0.750192
37 1 0.370222 0.381777 0.883143
39 3 0.252139 0.232798 0.735162
42 3 0.0230416 0.240035 0.503962
24 3 0.00440931 0.00945316 0.724828
34 3 -0.0141238 0.508312 0.768326
21 2 1.00567 0.252368 0.747008
7 1 0.624653 0.12371 0.622209
25 3 0.997666 0.254693 0.982571
53 3 0.759173 0.244566 0.760879
43 3 0.494884 0.537618 0.750245
8 2 0.241293 0.744636 1.00492
28 1 0.128757 0.618357 0.626264
30 3 0.273958 0.754884 0.760112
36 3 0.492526 0.769266 0.999765
5 2 0.519071 0.764936 0.751141
9 3 0.482073 0.999109 0.756025
6 3 0.731315 0.498483 0.509332
10 1 0.874323 0.87415 0.86687
14 3 0.750263 0.720858 0.728408
18 2 0.737551 0.493659 0.757527
ITEM: TIMESTEP
15000
ITEM: NUMBER OF ATOMS
56
ITEM: BOX BOUNDS pp pp pp
-7.0513737448677283e-02 8.3155137374483576e+00
-1.0937518393184698e-01 8.3543751839314790e+00
0.0000000000000000e+00 8.2449999999999992e+00
ITEM: ATOMS id type xs ys zs
1 1 0.127925 0.131489 0.126005
3 3 0.25886 0.277902 0.255033
11 2 0.267891 0.523269 0.249743
15 3 0.476656 0.249858 0.490338
54 2 0.482839 0.228424 0.259668
51 2 -0.00252499 0.502968 0.00134934
50 3 0.49318 0.230262 0.0221286
2 2 0.516245 0.478986 0.491329
4 1 0.885548 0.387764 0.369337
31 2 0.749402 0.231086 0.0048522
32 3 0.532546 -0.0103338 0.258912
33 3 0.735499 0.230577 0.241
56 3 0.715916 0.00527553 0.00768167
22 3 0.765275 0.490311 -0.00510495
38 2 0.992039 0.00826875 0.521582
26 3 0.496616 0.480778 0.262753
46 3 0.221431 0.518422 0.00648571
41 3 -0.0136491 1.00829 0.273651
55 3 0.276121 0.477895 0.494414
17 1 0.365735 0.874814 0.380365
45 2 -0.00947134 0.763853 0.245714
52 3 0.233209 0.765011 0.233874
13 3 0.25814 1.00172 -0.00458846
47 2 0.745141 0.982781 0.245231
49 3 0.741749 0.976573 0.485458
16 3 0.998465 0.523575 0.240747
29 2 0.484418 0.974761 0.00444978
20 1 0.62144 0.615579 0.125861
44 3 0.754968 0.739773 0.256567
48 3 0.991333 0.760244 0.488982
40 2 0.736113 0.751922 0.493706
19 3 0.514741 0.748366 0.507848
12 3 1.01956 0.7383 0.00897315
23 2 0.227947 0.252985 0.498483
27 3 0.223761 0.00915937 0.51438
35 2 0.270164 0.00478977 0.745508
37 1 0.373639 0.37056 0.881089
39 3 0.236029 0.251754 0.732719
42 3 0.00282394 0.242736 0.493652
24 3 0.0343925 0.0148122 0.763014
34 3 0.0279364 0.495771 0.76742
21 2 0.982416 0.266288 0.741763
7 1 0.620641 0.124702 0.624519
25 3 1.00214 0.262144 0.982062
53 3 0.754912 0.271802 0.745061
43 3 0.506781 0.518584 0.742465
8 2 0.26305 0.758748 0.995022
28 1 0.13849 0.628068 0.614918
30 3 0.269854 0.761221 0.757785
36 3 0.507352 0.752229 0.983332
5 2 0.514797 0.75133 0.736069
9 3 0.509612 0.981617 0.769218
6 3 0.762456 0.519375 0.51253
10 1 0.884633 0.88121 0.884131
14 3 0.745168 0.740589 0.737666
18 2 0.761577 0.507675 0.757038
ITEM: TIMESTEP
20000
ITEM: NUMBER OF ATOMS
56
ITEM: BOX BOUNDS pp pp pp
-1.0446997897280319e-02 8.2554469978969571e+00
-1.1987663607322288e-01 8.3648766360728555e+00
0.0000000000000000e+00 8.2449999999999992e+00
ITEM: ATOMS id type xs ys zs
1 1 0.127831 0.121423 0.130317
3 3 0.273385 0.269912 0.251404
11 2 0.2402 0.501216 0.252454
15 3 0.493321 0.247267 0.496403
54 2 0.509834 0.260106 0.262208
51 2 0.0117219 0.509941 -0.00398215
50 3 0.504644 0.249368 0.000909188
2 2 0.490924 0.490325 0.500049
4 1 0.882229 0.377672 0.370907
31 2 0.743959 0.267485 -0.00111719
32 3 0.499974 0.0227542 0.248569
33 3 0.75496 0.252578 0.237812
56 3 0.763012 0.0172404 0.0188801
22 3 0.759807 0.497994 -0.00774364
38 2 0.999196 -0.000901535 0.495267
26 3 0.484807 0.502865 0.255979
46 3 0.250258 0.501661 0.0140297
41 3 -0.0112559 1.00108 0.248626
55 3 0.251884 0.474781 0.491946
17 1 0.390719 0.876377 0.384603
45 2 -0.00615203 0.769497 0.234631
52 3 0.229683 0.738569 0.248903
13 3 0.261872 0.967048 0.00986725
47 2 0.743951 1.01122 0.249454
49 3 0.75038 0.975986 0.499243
16 3 1.00441 0.519574 0.231799
29 2 0.505891 0.980807 0.0110003
20 1 0.629087 0.623978 0.119136
44 3 0.76191 0.768913 0.272339
48 3 1.00675 0.772151 0.483354
40 2 0.757008 0.735149 0.510939
19 3 0.530631 0.735897 0.496407
12 3 1.01025 0.73618 -0.00644601
23 2 0.256645 0.231528 0.497818
27 3 0.242715 -0.0163776 0.534359
35 2 0.241004 -0.00316246 0.769661
37 1 0.372446 0.385181 0.857194
39 3 0.243588 0.2417 0.724966
42 3 0.0200503 0.252161 0.513371
24 3 -0.000598932 0.0128754 0.743904
34 3 -0.0177562 0.49083 0.758107
21 2 1.00775 0.247051 0.743172
7 1 0.628291 0.122358 0.617695
25 3 0.979283 0.250219 0.968294
53 3 0.763788 0.255467 0.75134
43 3 0.493258 0.543942 0.740771
8 2 0.257658 0.735075 0.991095
28 1 0.123518 0.617507 0.623103
30 3 0.248877 0.760779 0.758519
36 3 0.494497 0.741595 0.983935
5 2 0.487297 0.77352 0.746179
9 3 0.482136 1.01548 0.763708
6 3 0.73893 0.480974 0.501684
10 1 0.872111 0.870956 0.879769
14 3 0.74126 0.726811 0.744098
18 2 0.746679 0.48931 0.74937
ITEM: TIMESTEP
25000
ITEM: NUMBER OF ATOMS
56
ITEM: BOX BOUNDS pp pp pp
-6.7115326169204792e-02 8.3121153261689145e+00
-1.3037808821459879e-01 8.3753780882142319e+00
0.0000000000000000e+00 8.2449999999999992e+00
ITEM: ATOMS id type xs ys zs
1 1 0.115279 0.130693 0.119774
3 3 0.259773 0.246242 0.245501
11 2 0.260205 0.476654 0.260719
15 3 0.473502 0.251109 0.48645
54 2 0.495195 0.237138 0.249536
51 2 0.00654619 0.49401 0.0106237
50 3 0.493284 0.222564 0.00812375
2 2 0.510991 0.495923 0.487257
4 1 0.876658 0.38185 0.360945
31 2 0.733841 0.254152 -0.00830248
32 3 0.479759 0.00837119 0.230023
33 3 0.736205 0.251127 0.238042
56 3 0.758426 0.00738076 0.0220533
22 3 0.766182 0.492705 -0.0126436
38 2 0.995911 0.0211565 0.495081
26 3 0.50661 0.492908 0.258902
46 3 0.251722 0.508033 0.0129678
41 3 -0.0289475 0.988202 0.258421
55 3 0.263698 0.510495 0.493309
17 1 0.368664 0.876102 0.369925
45 2 0.00494714 0.737186 0.271092
52 3 0.250233 0.710034 0.239968
13 3 0.271529 1.00658 -0.000615707
47 2 0.748311 0.999587 0.264775
49 3 0.751656 0.996089 0.4906
16 3 1.01647 0.499547 0.238816
29 2 0.514345 0.974981 -0.011982
20 1 0.627225 0.640149 0.114243
44 3 0.770222 0.760999 0.253189
48 3 0.977589 0.770493 0.509264
40 2 0.744129 0.766452 0.486877
19 3 0.497426 0.756094 0.51596
12 3 0.984166 0.729762 0.0302634
23 2 0.23458 0.271504 0.492814
27 3 0.248095 0.0192778 0.504182
35 2 0.269956 0.00629914 0.753156
37 1 0.379975 0.359765 0.861897
39 3 0.242834 0.23413 0.741893
42 3 0.0072463 0.26075 0.512963
24 3 0.0163603 0.027774 0.734186
34 3 -0.023477 0.500993 0.74528
21 2 1.00631 0.250162 0.745087
7 1 0.618417 0.127487 0.615463
25 3 0.962761 0.255441 0.993187
53 3 0.749773 0.288674 0.739828
43 3 0.504846 0.494173 0.72475
8 2 0.236674 0.755231 1.01047
28 1 0.126372 0.634978 0.62999
30 3 0.283723 0.75448 0.762781
36 3 0.462003 0.742511 0.999512
5 2 0.514918 0.727926 0.769681
9 3 0.502408 0.967309 0.745513
6 3 0.754832 0.519505 0.491001
10 1 0.876238 0.884288 0.873875
14 3 0.746673 0.756385 0.726576
18 2 0.74273 0.518398 0.747323
ITEM: TIMESTEP
30000
ITEM: NUMBER OF ATOMS
56
ITEM: BOX BOUNDS pp pp pp
-1.1746055457183235e-01 8.3624605545715909e+00
-1.4087954035597472e-01 8.3858795403556066e+00
0.0000000000000000e+00 8.2449999999999992e+00
ITEM: ATOMS id type xs ys zs
1 1 0.133414 0.130854 0.122429
3 3 0.262699 0.261677 0.24792
11 2 0.264041 0.488721 0.225215
15 3 0.486494 0.26888 0.508409
54 2 0.50778 0.235973 0.257744
51 2 -0.000772251 0.48681 -0.00526742
50 3 0.508667 0.230592 0.0203777
2 2 0.507518 0.50061 0.506051
4 1 0.881601 0.380767 0.37679
31 2 0.750674 0.241392 -0.0111557
32 3 0.493453 -0.0025891 0.250324
33 3 0.743158 0.263168 0.22285
56 3 0.763906 0.0104027 -0.00241107
22 3 0.735245 0.484453 0.00408106
38 2 0.998239 0.00635398 0.494092
26 3 0.482489 0.498488 0.264017
46 3 0.234271 0.500376 -0.0213853
41 3 -0.0153262 0.985437 0.245762
55 3 0.257014 0.512174 0.469354
17 1 0.362506 0.881098 0.390522
45 2 -0.0124152 0.755526 0.24362
52 3 0.229689 0.753148 0.259008
13 3 0.279728 1.00983 0.00599572
47 2 0.736279 1.02738 0.229084
49 3 0.761776 1.00321 0.488476
16 3 1.01468 0.510256 0.226848
29 2 0.503435 1.0028 0.00963813
20 1 0.604227 0.631376 0.138397
44 3 0.736035 0.790343 0.261261
48 3 0.993215 0.78304 0.482509
40 2 0.738556 0.758848 0.513466
19 3 0.487225 0.746127 0.521803
12 3 1.02118 0.728084 0.00125486
23 2 0.252539 0.267478 0.497912
27 3 0.243874 0.0223502 0.517971
35 2 0.247049 -0.0250465 0.75097
37 1 0.373693 0.366929 0.851776
39 3 0.240499 0.220716 0.735485
42 3 0.010979 0.271165 0.523778
24 3 -0.00147492 0.0185925 0.731141
34 3 -0.013941 0.4926 0.756208
21 2 1.01558 0.254036 0.747806
7 1 0.625653 0.124922 0.628135
25 3 0.979616 0.248855 0.985645
53 3 0.764667 0.254865 0.755527
43 3 0.512094 0.491443 0.727746
8 2 0.242166 0.746096 1.01126
28 1 0.122073 0.63027 0.605866
30 3 0.256984 0.729627 0.764858
36 3 0.493529 0.769791 1.00084
5 2 0.51261 0.739437 0.762141
9 3 0.486029 0.983292 0.768791
6 3 0.753308 0.509834 0.512355
10 1 0.881509 0.870497 0.872532
14 3 0.753164 0.722849 0.744773
18 2 0.751787 0.490197 0.774501
ITEM: TIMESTEP
35000
ITEM: NUMBER OF ATOMS
56
ITEM: BOX BOUNDS pp pp pp
-6.5572517978848666e-02 8.3105725179786241e+00
-1.5138099249735060e-01 8.3963809924969830e+00
0.0000000000000000e+00 8.2449999999999992e+00
ITEM: ATOMS id type xs ys zs
1 1 0.131351 0.123425 0.123559
3 3 0.26742 0.268247 0.241051
11 2 0.259512 0.517087 0.253692
15 3 0.495141 0.26053 0.485888
54 2 0.510808 0.274295 0.25572
51 2 -0.00951867 0.489132 0.000630168
50 3 0.501005 0.236061 0.0224304
2 2 0.497417 0.497287 0.510338
4 1 0.880775 0.368293 0.372916
31 2 0.751758 0.247334 -0.00151715
32 3 0.509221 0.0151378 0.243959
33 3 0.745723 0.212408 0.2437
56 3 0.722566 -0.0148224 0.000800974
22 3 0.75131 0.503007 -0.0128018
38 2 1.02077 -0.0227431 0.521845
26 3 0.490154 0.503507 0.268487
46 3 0.250093 0.524521 0.0219147
41 3 0.0110584 0.972233 0.257532
55 3 0.26689 0.501284 0.496561
17 1 0.372137 0.879757 0.38516
45 2 0.00693311 0.742273 0.24468
52 3 0.248222 0.75332 0.239896
13 3 0.256196 1.00026 -0.0181318
47 2 0.752734 0.989024 0.243784
49 3 0.737898 0.9755 0.47686
16 3 1.00916 0.501929 0.247489
29 2 0.484924 1.00303 -0.000823739
20 1 0.620391 0.61851 0.131987
44 3 0.756195 0.756493 0.269787
48 3 0.966387 0.738409 0.506565
40 2 0.737448 0.748906 0.486211
19 3 0.493605 0.726534 0.51851
12 3 0.997691 0.726951 -0.000927269
23 2 0.252562 0.258347 0.495729
27 3 0.244028 0.0278186 0.507069
35 2 0.25011 0.0323748 0.749817
37 1 0.369569 0.375347 0.895178
39 3 0.231825 0.263453 0.756378
42 3 0.00782878 0.215517 0.494651
24 3 -0.0013869 0.0258766 0.754128
34 3 -0.0183323 0.484757 0.756643
21 2 1.00501 0.244454 0.73412
7 1 0.617333 0.117653 0.62608
25 3 0.989622 0.242709 0.971672
53 3 0.76624 0.239998 0.772344
43 3 0.519233 0.523632 0.754511
8 2 0.232955 0.761038 0.996149
28 1 0.130681 0.626829 0.622901
30 3 0.263744 0.752829 0.760516
36 3 0.463293 0.755247 1.00669
5 2 0.518376 0.75227 0.74826
9 3 0.466654 0.996852 0.748299
6 3 0.749986 0.501593 0.492375
10 1 0.878071 0.868936 0.872012
14 3 0.760344 0.737676 0.737759
18 2 0.751743 0.489118 0.751018
ITEM: TIMESTEP
40000
ITEM: NUMBER OF ATOMS
56
ITEM: BOX BOUNDS pp pp pp
-8.7919404113094402e-02 8.3329194041127650e+00
-1.6188244463872650e-01 8.4068824446383594e+00
0.0000000000000000e+00 8.2449999999999992e+00
ITEM: ATOMS id type xs ys zs
1 1 0.122771 0.130506 0.119838
3 3 0.2604 0.252703 0.243784
11 2 0.243721 0.501551 0.244659
15 3 0.475468 0.271286 0.484459
54 2 0.504487 0.23373 0.242909
51 2 -0.00503937 0.493294 0.0188941
50 3 0.492282 0.222513 0.00965383
2 2 0.498413 0.493038 0.495961
4 1 0.862066 0.368939 0.381085
31 2 0.74086 0.243066 -0.00205741
32 3 0.513654 -0.00328404 0.228303
33 3 0.749997 0.246019 0.221807
56 3 0.748929 0.0206465 0.00679751
22 3 0.75003 0.484707 -0.00591932
38 2 0.996305 0.00585642 0.516906
26 3 0.515578 0.480734 0.255795
46 3 0.225975 0.516199 0.000944593
41 3 0.00539246 1.00198 0.258594
55 3 0.243664 0.502322 0.478779
17 1 0.398377 0.872734 0.372628
45 2 0.00772536 0.768364 0.243592
52 3 0.251245 0.726888 0.242827
13 3 0.250808 0.974873 -0.00446679
47 2 0.755626 1.0011 0.248761
49 3 0.76097 0.992929 0.490186
16 3 1.00867 0.511857 0.251308
29 2 0.510911 0.994045 0.00232099
20 1 0.627611 0.611518 0.122214
44 3 0.752731 0.758056 0.265678
48 3 0.987073 0.756458 0.501854
40 2 0.754604 0.770845 0.499085
19 3 0.514613 0.741243 0.52166
12 3 0.993829 0.730945 0.00425599
23 2 0.249654 0.257084 0.49819
27 3 0.234105 0.0149234 0.509997
35 2 0.244081 -0.00190543 0.74309
37 1 0.368133 0.372412 0.882727
39 3 0.235594 0.249951 0.742298
42 3 0.00660309 0.232875 0.499707
24 3 0.0165247 0.0161488 0.748734
34 3 -0.00388536 0.511055 0.766109
21 2 1.01045 0.261186 0.746057
7 1 0.630544 0.12499 0.610184
25 3 0.989286 0.26185 0.986671
53 3 0.763872 0.254754 0.74387
43 3 0.51404 0.502019 0.747643
8 2 0.237786 0.737831 1.00239
28 1 0.125157 0.641913 0.620327
30 3 0.264871 0.754302 0.76226
36 3 0.47401 0.748281 1.01487
5 2 0.508695 0.762052 0.756735
9 3 0.502219 1.00273 0.752604
6 3 0.724832 0.501867 0.516625
10 1 0.869522 0.875094 0.867924
14 3 0.742984 0.719053 0.748724
18 2 0.750993 0.491078 0.746466
ITEM: TIMESTEP
45000
ITEM: NUMBER OF ATOMS
56
ITEM: BOX BOUNDS pp pp pp
-1.0015769231568417e-01 8.3451576923153574e+00
-1.7238389678010241e-01 8.4173838967797341e+00
0.0000000000000000e+00 8.2449999999999992e+00
ITEM: ATOMS id type xs ys zs
1 1 0.1314 0.131006 0.139529
3 3 0.288176 0.268163 0.249492
11 2 0.249536 0.497534 0.24472
15 3 0.48738 0.263795 0.486639
54 2 0.516634 0.247793 0.255835
51 2 0.0108949 0.499777 -0.00608462
50 3 0.502402 0.223525 -0.00094854
2 2 0.499015 0.507819 0.493622
4 1 0.877437 0.386535 0.381144
31 2 0.756345 0.240155 -0.00297174
32 3 0.501135 -0.00246209 0.23595
33 3 0.747359 0.247704 0.260626
56 3 0.738305 0.002254 0.010921
22 3 0.767979 0.507615 -0.0104406
38 2 0.997385 0.00848807 0.511167
26 3 0.50249 0.491178 0.244398
46 3 0.248947 0.491347 -0.00577705
41 3 -0.00633116 1.00308 0.261444
55 3 0.263654 0.478011 0.501053
17 1 0.368471 0.875177 0.369975
45 2 -0.00263357 0.738409 0.261884
52 3 0.242803 0.741121 0.245436
13 3 0.254999 0.992041 -0.00608937
47 2 0.759122 1.01058 0.257386
49 3 0.753875 1.00144 0.494335
16 3 1.00119 0.509218 0.230558
29 2 0.489447 0.987718 -0.00265579
20 1 0.632612 0.629805 0.119861
44 3 0.744313 0.782249 0.26962
48 3 1.0098 0.773429 0.51754
40 2 0.730634 0.768511 0.509529
19 3 0.503695 0.730286 0.4906
12 3 1.02197 0.747198 0.0149064
23 2 0.247533 0.244895 0.488651
27 3 0.231747 -0.00378995 0.504459
35 2 0.249093 0.00298341 0.748543
37 1 0.383045 0.369478 0.855529
39 3 0.247364 0.237454 0.745305
42 3 0.0141499 0.258312 0.516954
24 3 0.00314202 0.00885267 0.749526
34 3 -0.000374339 0.486182 0.760757
21 2 1.00793 0.244679 0.763487
7 1 0.622808 0.124009 0.624925
25 3 0.983095 0.261694 1.02172
53 3 0.772147 0.250127 0.747182
43 3 0.490818 0.512143 0.730927
8 2 0.252874 0.748162 1.00788
28 1 0.12709 0.625319 0.625125
30 3 0.260542 0.750572 0.77438
36 3 0.5106 0.755838 0.97007
5 2 0.486473 0.742442 0.732206
9 3 0.482999 1.0056 0.766802
6 3 0.729755 0.5376 0.490871
10 1 0.873216 0.866071 0.876133
14 3 0.738716 0.730693 0.751922
18 2 0.736368 0.496754 0.731631
ITEM: TIMESTEP
50000
ITEM: NUMBER OF ATOMS
56
ITEM: BOX BOUNDS pp pp pp
-5.9374168922286863e-02 8.3043741689219583e+00
-1.8288534892147834e-01 8.4278853489211105e+00
0.0000000000000000e+00 8.2449999999999992e+00
ITEM: ATOMS id type xs ys zs
1 1 0.136553 0.13355 0.147537
3 3 0.253981 0.289692 0.259603
11 2 0.262557 0.525083 0.247634
15 3 0.48983 0.24089 0.492221
54 2 0.490527 0.24594 0.23889
51 2 -0.000463612 0.505432 0.00215669
50 3 0.507522 0.239056 0.00685884
2 2 0.502534 0.47934 0.504328
4 1 0.88113 0.381574 0.371861
31 2 0.758662 0.246063 0.00164601
32 3 0.515484 0.0327909 0.261188
33 3 0.72903 0.256577 0.250434
56 3 0.73714 -0.00164399 0.00514079
22 3 0.76215 0.49654 1.67083e-05
38 2 1.01088 0.0158002 0.501856
26 3 0.497922 0.494852 0.262962
46 3 0.254113 0.500152 0.0114395
41 3 0.000251798 0.986864 0.262584
55 3 0.246586 0.477906 0.481538
17 1 0.385418 0.862261 0.370437
45 2 -0.00829931 0.749936 0.239951
52 3 0.239722 0.759363 0.218199
13 3 0.247449 0.982412 0.0149996
47 2 0.767886 1.01512 0.240014
49 3 0.753592 1.00646 0.495211
16 3 1.03189 0.50153 0.2398
29 2 0.494919 0.997547 0.0010878
20 1 0.615527 0.623193 0.12671
44 3 0.756743 0.780573 0.249676
48 3 0.999763 0.766142 0.480202
40 2 0.742161 0.744745 0.501957
19 3 0.488496 0.708284 0.513727
12 3 1.00374 0.751162 0.00385373
23 2 0.251402 0.249909 0.496418
27 3 0.259706 -0.0100857 0.53659
35 2 0.246867 -0.00423284 0.765582
37 1 0.383314 0.374717 0.878286
39 3 0.226191 0.236611 0.772737
42 3 0.0175136 0.245287 0.521898
24 3 0.0114348 0.00594452 0.733856
34 3 -0.0029892 0.487085 0.73216
21 2 0.980286 0.238314 0.756094
7 1 0.621348 0.132174 0.636148
25 3 0.999325 0.275411 1.00651
53 3 0.730573 0.273388 0.76303
43 3 0.516052 0.493812 0.747438
8 2 0.235137 0.742394 0.984288
28 1 0.126574 0.62492 0.595988
30 3 0.25058 0.759341 0.736913
36 3 0.484828 0.754138 0.987959
5 2 0.492991 0.738494 0.745145
9 3 0.488122 0.982799 0.761534
6 3 0.746709 0.501586 0.516894
10 1 0.876544 0.873089 0.858513
14 3 0.754987 0.732146 0.743829
18 2 0.769074 0.507364 0.75411
ITEM: TIMESTEP
55000
ITEM: NUMBER OF ATOMS
56
ITEM: BOX BOUNDS pp pp pp
-3.2909910991847369e-02 8.2779099109914522e+00
-1.9338680106285422e-01 8.4383868010624870e+00
0.0000000000000000e+00 8.2449999999999992e+00
ITEM: ATOMS id type xs ys zs
1 1 0.124105 0.126501 0.136592
3 3 0.234051 0.285742 0.256129
11 2 0.256082 0.518762 0.235298
15 3 0.480193 0.273113 0.499224
54 2 0.485132 0.241042 0.25442
51 2 -0.00025638 0.484102 0.000787829
50 3 0.512883 0.249186 -0.00454566
2 2 0.492376 0.499079 0.503276
4 1 0.870942 0.361424 0.367712
31 2 0.746164 0.240676 -0.00492666
32 3 0.526342 -0.0072634 0.240543
33 3 0.74561 0.233867 0.236255
56 3 0.727525 0.0198835 0.00255096
22 3 0.759695 0.493384 -0.00886405
38 2 0.999564 -0.00102867 0.536949
26 3 0.499473 0.468756 0.262348
46 3 0.238167 0.487231 0.010594
41 3 0.00726543 1.00068 0.278887
55 3 0.251588 0.499758 0.481597
17 1 0.388634 0.885318 0.374283
45 2 0.0117209 0.766344 0.253015
52 3 0.244159 0.764825 0.240112
13 3 0.258095 0.993965 -0.00415224
47 2 0.756205 0.998767 0.250152
49 3 0.738247 0.979602 0.495431
16 3 1.01166 0.505872 0.242996
29 2 0.488507 1.00176 0.00581576
20 1 0.624854 0.608761 0.124103
44 3 0.762704 0.747406 0.260131
48 3 0.99828 0.763659 0.488298
40 2 0.753606 0.723738 0.507407
19 3 0.500025 0.74601 0.51123
12 3 1.0023 0.717547 -0.00140989
23 2 0.254581 0.242529 0.486116
27 3 0.228603 -0.00107354 0.513
35 2 0.263426 0.00646371 0.741511
37 1 0.371006 0.372974 0.867388
39 3 0.227779 0.24449 0.732133
42 3 0.0134747 0.234701 0.495193
24 3 0.0324582 0.0174666 0.764129
34 3 0.00704758 0.497574 0.775909
21 2 0.990554 0.258664 0.73959
7 1 0.61304 0.116846 0.622992
25 3 1.00135 0.253565 0.973882
53 3 0.741136 0.273884 0.743067
43 3 0.508959 0.496429 0.737419
8 2 0.264531 0.757225 0.998736
28 1 0.125821 0.621569 0.612235
30 3 0.252257 0.772269 0.741531
36 3 0.495796 0.767239 1.00427
5 2 0.501568 0.7517 0.756909
9 3 0.503831 0.985695 0.771402
6 3 0.727919 0.473714 0.50436
10 1 0.882222 0.886727 0.876849
14 3 0.735921 0.77151 0.749932
18 2 0.743499 0.509577 0.739067
ITEM: TIMESTEP
60000
ITEM: NUMBER OF ATOMS
56
ITEM: BOX BOUNDS pp pp pp
-8.5026321055375220e-02 8.3300263210550600e+00
-2.0388825320423015e-01 8.4488882532038634e+00
0.0000000000000000e+00 8.2449999999999992e+00
ITEM: ATOMS id type xs ys zs
1 1 0.122637 0.122836 0.130831
3 3 0.240522 0.267584 0.260852
11 2 0.24691 0.515809 0.275773
15 3 0.484761 0.264027 0.497506
54 2 0.504634 0.248675 0.258219
51 2 0.00721589 0.492446 -0.00104089
50 3 0.50645 0.254446 0.0327488
2 2 0.520143 0.511359 0.484499
4 1 0.872553 0.380098 0.371865
31 2 0.738164 0.234183 -0.0071833
32 3 0.481738 0.000270517 0.246742
33 3 0.742207 0.243717 0.243156
56 3 0.730322 0.0058626 -0.00496661
22 3 0.761212 0.472066 -0.00309464
38 2 1.00367 -0.0211874 0.516694
26 3 0.481853 0.487296 0.237789
46 3 0.245468 0.506487 0.0223227
41 3 -0.019058 0.99392 0.273341
55 3 0.271952 0.484886 0.495057
17 1 0.351648 0.868888 0.400675
45 2 -0.00722923 0.771049 0.229697
52 3 0.218818 0.737948 0.278801
13 3 0.257109 0.982625 0.00628983
47 2 0.743988 1.00941 0.252792
49 3 0.749561 1.00339 0.477419
16 3 0.996339 0.506529 0.2219
29 2 0.491377 1.01214 0.0136171
20 1 0.619964 0.623726 0.122643
44 3 0.753113 0.757252 0.264249
48 3 1.00017 0.743864 0.48628
40 2 0.754123 0.758295 0.499038
19 3 0.512276 0.743961 0.504038
12 3 1.01772 0.73989 -0.00320245
23 2 0.229158 0.251101 0.488124
27 3 0.222264 0.0137458 0.514255
35 2 0.264651 -0.00615824 0.742971
37 1 0.377546 0.37093 0.870922
39 3 0.250644 0.24358 0.73849
42 3 -0.0086518 0.218824 0.513043
24 3 0.00460171 0.0216917 0.746085
34 3 -0.00559211 0.48011 0.751967
21 2 0.995582 0.261063 0.754614
7 1 0.628907 0.131974 0.617534
25 3 0.99234 0.243469 0.992216
53 3 0.771911 0.232484 0.762621
43 3 0.506964 0.508695 0.717357
8 2 0.250284 0.747519 1.00044
28 1 0.148254 0.621187 0.618693
30 3 0.270938 0.754845 0.761535
36 3 0.495246 0.776743 0.994668
5 2 0.516618 0.755358 0.746181
9 3 0.498281 0.995324 0.776898
6 3 0.753726 0.5222 0.50987
10 1 0.883806 0.88031 0.871092
14 3 0.766398 0.737824 0.735315
18 2 0.754128 0.474808 0.730015
ITEM: TIMESTEP
65000
ITEM: NUMBER OF ATOMS
56
ITEM: BOX BOUNDS pp pp pp
-4.0811502010096312e-02 8.2858115020097394e+00
-2.1438970534560606e-01 8.4593897053452380e+00
0.0000000000000000e+00 8.2449999999999992e+00
ITEM: ATOMS id type xs ys zs
1 1 0.130575 0.131681 0.111644
3 3 0.263175 0.263838 0.23516
11 2 0.252722 0.504498 0.247616
15 3 0.499356 0.288453 0.495403
54 2 0.500791 0.255536 0.257419
51 2 -0.0215833 0.498062 0.00791542
50 3 0.513255 0.267974 0.0144653
2 2 0.510592 0.520384 0.497993
4 1 0.877727 0.385229 0.368698
31 2 0.744283 0.236483 -0.00585679
32 3 0.514036 0.0107083 0.24832
33 3 0.742436 0.266058 0.233054
56 3 0.739955 -0.0123541 0.0117469
22 3 0.742469 0.486344 0.00339691
38 2 1.01876 0.00409787 0.497017
26 3 0.494332 0.485359 0.256895
46 3 0.220267 0.482124 -0.0045739
41 3 7.02794e-05 1.00687 0.268969
55 3 0.25334 0.476064 0.488736
17 1 0.384648 0.874336 0.374497
45 2 -0.00307977 0.754298 0.241937
52 3 0.226035 0.758232 0.245339
13 3 0.263629 0.974695 -0.00464939
47 2 0.754715 1.00645 0.243314
49 3 0.763239 1.00105 0.478456
16 3 1.00799 0.528468 0.248451
29 2 0.485026 1.0197 0.0133999
20 1 0.602162 0.631016 0.124231
44 3 0.734348 0.765118 0.26271
48 3 0.985391 0.743205 0.487496
40 2 0.755094 0.74806 0.50256
19 3 0.517118 0.755935 0.515515
12 3 1.01456 0.722698 0.00991574
23 2 0.264147 0.25116 0.503717
27 3 0.259527 -4.47846e-05 0.501907
35 2 0.248142 -0.0122576 0.743498
37 1 0.379439 0.369798 0.867039
39 3 0.244442 0.230346 0.739959
42 3 0.0106949 0.237733 0.502711
24 3 -0.00189819 -0.00797079 0.733049
34 3 -0.00323875 0.507904 0.77469
21 2 0.98913 0.241194 0.734115
7 1 0.613029 0.124527 0.609478
25 3 0.994183 0.261141 0.973507
53 3 0.765627 0.25615 0.754075
43 3 0.491478 0.505981 0.732829
8 2 0.258168 0.737534 1.01982
28 1 0.11551 0.614699 0.623059
30 3 0.272062 0.739143 0.763743
36 3 0.495972 0.782205 0.997606
5 2 0.497587 0.736164 0.754531
9 3 0.481649 0.99862 0.739711
6 3 0.749686 0.520404 0.505097
10 1 0.872994 0.859403 0.877663
14 3 0.741256 0.722017 0.738719
18 2 0.749566 0.492686 0.760382
ITEM: TIMESTEP
70000
ITEM: NUMBER OF ATOMS
56
ITEM: BOX BOUNDS pp pp pp
-5.9411347825395922e-02 8.3044113478249564e+00
-2.2489115748698196e-01 8.4698911574866145e+00
0.0000000000000000e+00 8.2449999999999992e+00
ITEM: ATOMS id type xs ys zs
1 1 0.129359 0.120933 0.12891
3 3 0.276403 0.244364 0.271406
11 2 0.241642 0.502507 0.260484
15 3 0.494848 0.278986 0.503316
54 2 0.507588 0.261335 0.263947
51 2 0.0016701 0.511704 -0.00819888
50 3 0.497078 0.228276 0.0200329
2 2 0.493423 0.507475 0.505698
4 1 0.862113 0.367847 0.364292
31 2 0.749035 0.244523 -0.0151744
32 3 0.486492 0.0387257 0.234476
33 3 0.759302 0.219394 0.223
56 3 0.750416 0.0120442 0.00391962
22 3 0.751592 0.511833 -0.00830148
38 2 1.00236 0.00912591 0.492005
26 3 0.476948 0.517587 0.263166
46 3 0.231366 0.518046 0.0172601
41 3 -0.0296604 0.982199 0.235236
55 3 0.249651 0.466288 0.495152
17 1 0.37758 0.882064 0.373188
45 2 0.0129155 0.744819 0.25352
52 3 0.265521 0.741337 0.238412
13 3 0.255312 0.986863 -0.00125433
47 2 0.748434 0.993231 0.251841
49 3 0.749529 0.98887 0.48351
16 3 0.99197 0.495831 0.223473
29 2 0.507724 0.997507 -0.0162557
20 1 0.625754 0.64202 0.1343
44 3 0.777826 0.738868 0.267029
48 3 1.00058 0.775761 0.487076
40 2 0.748848 0.754535 0.507711
19 3 0.514518 0.751519 0.515862
12 3 1.01505 0.74292 -0.00564914
23 2 0.260246 0.241165 0.496876
27 3 0.242825 0.00536451 0.511586
35 2 0.253981 -0.00658499 0.751241
37 1 0.370114 0.370377 0.897322
39 3 0.235293 0.251815 0.757261
42 3 0.0220722 0.25735 0.505068
24 3 0.0241279 0.0133822 0.753986
34 3 -0.026897 0.504119 0.74966
21 2 0.973082 0.233191 0.760938
7 1 0.604715 0.12551 0.628554
25 3 0.995943 0.267621 0.99637
53 3 0.745687 0.269521 0.741249
43 3 0.510304 0.497249 0.759707
8 2 0.257711 0.770278 1.00188
28 1 0.119938 0.620059 0.615346
30 3 0.251219 0.756319 0.755853
36 3 0.498658 0.768245 1.00353
5 2 0.503776 0.728284 0.745603
9 3 0.485313 0.952997 0.745939
6 3 0.736982 0.505525 0.507796
10 1 0.875671 0.888719 0.871042
14 3 0.753515 0.743015 0.745763
18 2 0.744935 0.495301 0.745985
ITEM: TIMESTEP
75000
ITEM: NUMBER OF ATOMS
56
ITEM: BOX BOUNDS pp pp pp
-1.7051991250003340e-02 8.2620519912495567e+00
-2.3539260962835784e-01 8.4803926096279909e+00
0.0000000000000000e+00 8.2449999999999992e+00
ITEM: ATOMS id type xs ys zs
1 1 0.119048 0.130015 0.128907
3 3 0.248837 0.241148 0.263183
11 2 0.248956 0.502919 0.260473
15 3 0.512344 0.23785 0.473658
54 2 0.487553 0.220909 0.233733
51 2 0.00241635 0.505108 0.00045058
50 3 0.505679 0.222634 -0.000613704
2 2 0.497695 0.480224 0.488167
4 1 0.878638 0.374614 0.376209
31 2 0.754145 0.255403 0.00352684
32 3 0.497402 0.0034121 0.225436
33 3 0.723054 0.239845 0.256488
56 3 0.75083 0.0104599 0.0136117
22 3 0.764746 0.511866 -0.00716841
38 2 1.01947 -0.0136922 0.484552
26 3 0.500067 0.486392 0.261042
46 3 0.25685 0.52088 0.00344723
41 3 -0.0148306 0.989909 0.240393
55 3 0.251836 0.5134 0.482313
17 1 0.382849 0.873146 0.379798
45 2 0.00390109 0.742175 0.251229
52 3 0.243558 0.7293 0.254587
13 3 0.268287 0.991314 -0.00256606
47 2 0.728307 1.01325 0.256432
49 3 0.78344 1.00064 0.500581
16 3 1.00501 0.50712 0.249532
29 2 0.506291 0.994408 -0.0143942
20 1 0.638953 0.635833 0.130035
44 3 0.772723 0.772332 0.271778
48 3 0.990915 0.757359 0.495204
40 2 0.736408 0.772166 0.519074
19 3 0.505018 0.741436 0.523223
12 3 1.00218 0.746126 0.00958354
23 2 0.25689 0.254261 0.50393
27 3 0.262333 0.0164823 0.52799