 # File generated with Atomsk by Prateek on 2021-12-29 11:08:08
 
         448  atoms
           3  atom types
 
      0.000000000000      16.490000000000  xlo xhi
      0.000000000000      16.490000000000  ylo yhi
      0.000000000000      16.490000000000  zlo zhi
 
Masses
 
            1   6.94000000              # Li
            2   54.93804500             # Mn
            3   15.99900000             # O
 
Atoms # atomic
 
         1    1        1.030625000000       1.030625000000       1.030625000000
         2    2        4.122500000000       4.122500000000       4.122500000000
         3    3        2.151945000000       2.151945000000       2.151945000000
         4    1       15.459375000000      15.459375000000      15.459375000000
         5    2       12.367500000000      12.367500000000      12.367500000000
         6    3       14.338055000000      14.338055000000      14.338055000000
         7    1        5.153125000000       1.030625000000       5.153125000000
         8    2        2.061250000000      14.428750000000       8.245000000000
         9    3        4.031805000000      16.399305000000       6.274445000000
        10    1        7.214375000000       3.091875000000       3.091875000000
        11    2       10.306250000000       6.183750000000       0.000000000000
        12    3        8.335695000000       4.213195000000       1.970555000000
        13    1        3.091875000000       7.214375000000       3.091875000000
        14    2        6.183750000000      10.306250000000       0.000000000000
        15    3        4.213195000000       8.335695000000       1.970555000000
        16    1        1.030625000000       5.153125000000       5.153125000000
        17    2       14.428750000000       2.061250000000       8.245000000000
        18    3       16.399305000000       4.031805000000       6.274445000000
        19    1        7.214375000000       7.214375000000      15.459375000000
        20    2        4.122500000000       4.122500000000      12.367500000000
        21    3        6.093055000000       6.093055000000      14.338055000000
        22    1        9.275625000000       9.275625000000       1.030625000000
        23    2       12.367500000000      12.367500000000       4.122500000000
        24    3       10.396945000000      10.396945000000       2.151945000000
        25    2       14.428750000000       8.245000000000       2.061250000000
        26    3       16.399305000000       6.274445000000       4.031805000000
        27    1        3.091875000000       3.091875000000       7.214375000000
        28    2        6.183750000000       0.000000000000      10.306250000000
        29    3        4.213195000000       1.970555000000       8.335695000000
        30    1       13.398125000000       5.153125000000       1.030625000000
        31    2       16.490000000000       2.061250000000      14.428750000000
        32    3       14.519445000000       4.031805000000      16.399305000000
        33    1       11.336875000000       7.214375000000       3.091875000000
        34    2        8.245000000000      10.306250000000       6.183750000000
        35    3       10.215555000000       8.335695000000       4.213195000000
        36    1       15.459375000000      11.336875000000       3.091875000000
        37    2       12.367500000000      14.428750000000       6.183750000000
        38    3       14.338055000000      12.458195000000       4.213195000000
        39    1        1.030625000000       9.275625000000       1.030625000000
        40    2        4.122500000000       6.183750000000      14.428750000000
        41    3        2.151945000000       8.154305000000      16.399305000000
        42    1       11.336875000000      11.336875000000       7.214375000000
        43    2       14.428750000000       8.245000000000      10.306250000000
        44    3       12.458195000000      10.215555000000       8.335695000000
        45    1        9.275625000000      13.398125000000       5.153125000000
        46    2        6.183750000000       0.000000000000       2.061250000000
        47    3        8.154305000000      14.519445000000       4.031805000000
        48    2       10.306250000000       0.000000000000       6.183750000000
        49    3        8.335695000000       1.970555000000       4.213195000000
        50    1        5.153125000000       5.153125000000       1.030625000000
        51    2        2.061250000000       8.245000000000      14.428750000000
        52    3        4.031805000000       6.274445000000      16.399305000000
        53    1       11.336875000000       3.091875000000       7.214375000000
        54    2        8.245000000000       6.183750000000      10.306250000000
        55    3       10.215555000000       4.213195000000       8.335695000000
        56    1       13.398125000000       1.030625000000       5.153125000000
        57    2        0.000000000000      14.428750000000       2.061250000000
        58    3       14.519445000000      16.399305000000       4.031805000000
        59    2       12.367500000000      10.306250000000       2.061250000000
        60    3       10.396945000000      12.276805000000       4.031805000000
        61    1        7.214375000000      15.459375000000       7.214375000000
        62    2        4.122500000000       2.061250000000      10.306250000000
        63    3        6.093055000000       0.090695000000       8.335695000000
        64    1       13.398125000000      13.398125000000       1.030625000000
        65    2       10.306250000000       0.000000000000      14.428750000000
        66    3       12.276805000000      14.519445000000      16.399305000000
        67    2        2.061250000000       8.245000000000       6.183750000000
        68    3        0.090695000000      10.215555000000       4.213195000000
        69    2        4.122500000000      12.367500000000       4.122500000000
        70    3        6.093055000000      14.338055000000       6.093055000000
        71    1        9.275625000000       1.030625000000       9.275625000000
        72    2       12.367500000000       4.122500000000      12.367500000000
        73    3       10.396945000000       2.151945000000      10.396945000000
        74    1        3.091875000000      15.459375000000       3.091875000000
        75    2        6.183750000000       2.061250000000       0.000000000000
        76    3        4.213195000000       0.090695000000       1.970555000000
        77    1        1.030625000000      13.398125000000       5.153125000000
        78    2       14.428750000000      10.306250000000       8.245000000000
        79    3       16.399305000000      12.276805000000       6.274445000000
        80    1        5.153125000000       9.275625000000       5.153125000000
        81    2        2.061250000000       6.183750000000       8.245000000000
        82    3        4.031805000000       8.154305000000       6.274445000000
        83    1        7.214375000000      11.336875000000       3.091875000000
        84    2       10.306250000000      14.428750000000       0.000000000000
        85    3        8.335695000000      12.458195000000       1.970555000000
        86    1        1.030625000000       9.275625000000       9.275625000000
        87    2        4.122500000000      12.367500000000      12.367500000000
        88    3        2.151945000000      10.396945000000      10.396945000000
        89    1       15.459375000000       7.214375000000       7.214375000000
        90    2       12.367500000000       4.122500000000       4.122500000000
        91    3       14.338055000000       6.093055000000       6.093055000000
        92    2        8.245000000000       2.061250000000      14.428750000000
        93    3        6.274445000000       4.031805000000      16.399305000000
        94    2        0.000000000000      10.306250000000       6.183750000000
        95    3        1.970555000000       8.335695000000       4.213195000000
        96    1        9.275625000000       5.153125000000      13.398125000000
        97    2        6.183750000000       8.245000000000      10.306250000000
        98    3        8.154305000000       6.274445000000      12.276805000000
        99    1       11.336875000000       3.091875000000      15.459375000000
       100    2       14.428750000000       0.000000000000       2.061250000000
       101    3       12.458195000000       1.970555000000       0.090695000000
       102    1        7.214375000000      15.459375000000      15.459375000000
       103    2       10.306250000000      12.367500000000       2.061250000000
       104    3        8.335695000000      14.338055000000       0.090695000000
       105    1        5.153125000000       1.030625000000      13.398125000000
       106    2        2.061250000000       4.122500000000      10.306250000000
       107    3        4.031805000000       2.151945000000      12.276805000000
       108    1       11.336875000000      15.459375000000       3.091875000000
       109    2        8.245000000000       2.061250000000       6.183750000000
       110    3       10.215555000000       0.090695000000       4.213195000000
       111    2        0.000000000000      10.306250000000      14.428750000000
       112    3       14.519445000000      12.276805000000      16.399305000000
       113    2        2.061250000000      14.428750000000      16.490000000000
       114    3        4.031805000000      16.399305000000      14.519445000000
       115    1        7.214375000000       3.091875000000      11.336875000000
       116    2       10.306250000000       6.183750000000       8.245000000000
       117    3        8.335695000000       4.213195000000      10.215555000000
       118    1        3.091875000000      11.336875000000      15.459375000000
       119    2        0.000000000000       8.245000000000      12.367500000000
       120    3        1.970555000000      10.215555000000      14.338055000000
       121    1        5.153125000000      13.398125000000       1.030625000000
       122    2        8.245000000000       0.000000000000       4.122500000000
       123    3        6.274445000000      14.519445000000       2.151945000000
       124    1       15.459375000000      11.336875000000      11.336875000000
       125    3        0.090695000000      12.458195000000      10.215555000000
       126    1       13.398125000000       9.275625000000      13.398125000000
       127    3       12.276805000000       8.154305000000      14.519445000000
       128    2       14.428750000000       6.183750000000      12.367500000000
       129    3       12.458195000000       4.213195000000      14.338055000000
       130    1        9.275625000000       1.030625000000       1.030625000000
       131    2        6.183750000000      14.428750000000       4.122500000000
       132    3        8.154305000000      16.399305000000       2.151945000000
       133    1       15.459375000000       3.091875000000      11.336875000000
       134    2       12.367500000000       0.000000000000       8.245000000000
       135    3       14.338055000000       1.970555000000      10.215555000000
       136    1        1.030625000000       5.153125000000      13.398125000000
       137    2        4.122500000000       8.245000000000       0.000000000000
       138    3        2.151945000000       6.274445000000      14.519445000000
       139    2        0.000000000000      12.367500000000      16.490000000000
       140    3       14.519445000000      10.396945000000      14.519445000000
       141    1       11.336875000000       7.214375000000      11.336875000000
       142    2        8.245000000000       4.122500000000       8.245000000000
       143    3       10.215555000000       6.093055000000      10.215555000000
       144    2       14.428750000000       6.183750000000       4.122500000000
       145    3       16.399305000000       8.154305000000       2.151945000000
       146    2        6.183750000000      14.428750000000      12.367500000000
       147    3        4.213195000000      12.458195000000      14.338055000000
       148    2        8.245000000000      10.306250000000      14.428750000000
       149    3       10.215555000000       8.335695000000      12.458195000000
       150    1       13.398125000000       5.153125000000       9.275625000000
       151    2        0.000000000000       2.061250000000       6.183750000000
       152    3       14.519445000000       4.031805000000       8.154305000000
       153    2       10.306250000000       4.122500000000       2.061250000000
       154    3        8.335695000000       6.093055000000       0.090695000000
       155    1        5.153125000000       9.275625000000      13.398125000000
       156    2        2.061250000000      12.367500000000      10.306250000000
       157    3        4.031805000000      10.396945000000      12.276805000000
       158    1        9.275625000000      13.398125000000      13.398125000000
       159    3        8.154305000000      14.519445000000      12.276805000000
       160    1       11.336875000000      11.336875000000      15.459375000000
       161    3       12.458195000000      10.215555000000       0.090695000000
       162    1        5.153125000000      13.398125000000       9.275625000000
       163    3        6.274445000000      12.276805000000       8.154305000000
       164    1        3.091875000000      15.459375000000      11.336875000000
       165    3        1.970555000000       0.090695000000      12.458195000000
       166    2        0.000000000000       6.183750000000      10.306250000000
       167    3        1.970555000000       4.213195000000       8.335695000000
       168    2        8.245000000000      14.428750000000       2.061250000000
       169    3        6.274445000000      16.399305000000       4.031805000000
       170    2        2.061250000000       0.000000000000      14.428750000000
       171    3        0.090695000000       1.970555000000      12.458195000000
       172    2       10.306250000000       8.245000000000       6.183750000000
       173    3       12.276805000000       6.274445000000       8.154305000000
       174    2       14.428750000000      12.367500000000       6.183750000000
       175    3       16.399305000000      10.396945000000       8.154305000000
       176    1        3.091875000000       7.214375000000      11.336875000000
       177    2        6.183750000000       4.122500000000      14.428750000000
       178    3        4.213195000000       6.093055000000      12.458195000000
       179    1       13.398125000000       9.275625000000       5.153125000000
       180    2       16.490000000000       6.183750000000       2.061250000000
       181    3       14.519445000000       8.154305000000       4.031805000000
       182    2        8.245000000000      14.428750000000      10.306250000000
       183    3       10.215555000000      12.458195000000       8.335695000000
       184    2        6.183750000000      10.306250000000       8.245000000000
       185    3        4.213195000000       8.335695000000      10.215555000000
       186    2       14.428750000000       2.061250000000       0.000000000000
       187    3       16.399305000000       4.031805000000      14.519445000000
       188    1        7.214375000000       7.214375000000       7.214375000000
       189    3        6.093055000000       6.093055000000       6.093055000000
       190    1        9.275625000000       9.275625000000       9.275625000000
       191    3       10.396945000000      10.396945000000      10.396945000000
       192    2        8.245000000000       0.000000000000      12.367500000000
       193    3        6.274445000000      14.519445000000      10.396945000000
       194    1        3.091875000000      11.336875000000       7.214375000000
       195    2        0.000000000000       8.245000000000       4.122500000000
       196    3        1.970555000000      10.215555000000       6.093055000000
       197    3        8.154305000000      12.276805000000      14.519445000000
       198    1       11.336875000000      15.459375000000      11.336875000000
       199    3       12.458195000000       0.090695000000      10.215555000000
       200    2       10.306250000000       2.061250000000      12.367500000000
       201    3       12.276805000000       4.031805000000      10.396945000000
       202    2        2.061250000000      10.306250000000       4.122500000000
       203    3        0.090695000000       8.335695000000       6.093055000000
       204    2       12.367500000000       8.245000000000       0.000000000000
       205    3       10.396945000000       6.274445000000      14.519445000000
       206    2        4.122500000000       0.000000000000       8.245000000000
       207    3        6.093055000000       1.970555000000      10.215555000000
       208    2        8.245000000000      12.367500000000       8.245000000000
       209    3       10.215555000000      14.338055000000      10.215555000000
       210    1       13.398125000000       1.030625000000      13.398125000000
       211    2        0.000000000000       4.122500000000       0.000000000000
       212    3       14.519445000000       2.151945000000      14.519445000000
       213    2       10.306250000000       2.061250000000       4.122500000000
       214    3        8.335695000000       0.090695000000       6.093055000000
       215    2        2.061250000000      10.306250000000      12.367500000000
       216    3        4.031805000000      12.276805000000      10.396945000000
       217    2        0.000000000000      14.428750000000      10.306250000000
       218    3       14.519445000000      16.399305000000      12.276805000000
       219    2        8.245000000000       6.183750000000       2.061250000000
       220    3       10.215555000000       4.213195000000       0.090695000000
       221    1        1.030625000000       1.030625000000       9.275625000000
       222    2       14.428750000000       4.122500000000       6.183750000000
       223    3       16.399305000000       2.151945000000       8.154305000000
       224    2        6.183750000000      12.367500000000      14.428750000000
       225    3        4.213195000000      14.338055000000      12.458195000000
       226    3        0.090695000000      10.215555000000      12.458195000000
       227    1       13.398125000000      13.398125000000       9.275625000000
       228    3       12.276805000000      14.519445000000       8.154305000000
       229    3        1.970555000000      12.458195000000       0.090695000000
       230    3        6.274445000000       8.154305000000      12.276805000000
       231    2       14.428750000000      10.306250000000       0.000000000000
       232    3       12.458195000000       8.335695000000       1.970555000000
       233    1        9.275625000000       5.153125000000       5.153125000000
       234    2        6.183750000000       2.061250000000       8.245000000000
       235    3        8.154305000000       4.031805000000       6.274445000000
       236    2       10.306250000000      14.428750000000       8.245000000000
       237    3       12.276805000000      16.399305000000       6.274445000000
       238    1       15.459375000000       3.091875000000       3.091875000000
       239    2        2.061250000000       6.183750000000       0.000000000000
       240    3        0.090695000000       4.213195000000       1.970555000000
       241    2        2.061250000000       0.000000000000       6.183750000000
       242    3        0.090695000000       1.970555000000       4.213195000000
       243    2       10.306250000000       8.245000000000      14.428750000000
       244    3       12.276805000000       6.274445000000      16.399305000000
       245    2        4.122500000000      10.306250000000       2.061250000000
       246    3        2.151945000000      12.276805000000       4.031805000000
       247    1       15.459375000000      15.459375000000       7.214375000000
       248    2       12.367500000000       2.061250000000      10.306250000000
       249    3       14.338055000000       0.090695000000       8.335695000000
       250    3        4.031805000000      14.519445000000      16.399305000000
       251    3        8.335695000000      10.215555000000       4.213195000000
       252    2        6.183750000000       8.245000000000       2.061250000000
       253    3        8.154305000000       6.274445000000       4.031805000000
       254    2       14.428750000000       0.000000000000      10.306250000000
       255    3       12.458195000000       1.970555000000       8.335695000000
       256    2        4.122500000000      14.428750000000       6.183750000000
       257    3        6.093055000000      12.458195000000       4.213195000000
       258    2       12.367500000000       6.183750000000      14.428750000000
       259    3       10.396945000000       8.154305000000      16.399305000000
       260    3        4.213195000000      10.215555000000       8.335695000000
       261    3       16.399305000000      14.519445000000       4.031805000000
       262    3       12.276805000000       8.154305000000       6.274445000000
       263    3        0.090695000000      12.458195000000       1.970555000000
       264    3       12.458195000000       0.090695000000       1.970555000000
       265    3        8.154305000000      12.276805000000       6.274445000000
       266    1        7.214375000000      11.336875000000      11.336875000000
       267    3        8.335695000000      12.458195000000      10.215555000000
       268    3        4.031805000000       8.154305000000      14.519445000000
       269    1        1.030625000000      13.398125000000      13.398125000000
       270    3       16.399305000000      12.276805000000      14.519445000000
       271    3        4.213195000000       0.090695000000      10.215555000000
       272    1        3.091875000000       3.091875000000      15.459375000000
       273    3        1.970555000000       4.213195000000       0.090695000000
       274    3        6.274445000000      16.399305000000      12.276805000000
       275    1        5.153125000000       5.153125000000       9.275625000000
       276    3        6.274445000000       4.031805000000       8.154305000000
       277    3        1.970555000000       8.335695000000      12.458195000000
       278    1       15.459375000000       7.214375000000      15.459375000000
       279    3        0.090695000000       8.335695000000      14.338055000000
       280    3       12.276805000000       4.031805000000       2.151945000000
       281    3        4.213195000000      10.215555000000       0.090695000000
       282    3       16.399305000000      14.519445000000      12.276805000000
       283    3       10.215555000000       0.090695000000      12.458195000000
       284    3       14.519445000000      12.276805000000       8.154305000000
       285    2        8.245000000000      12.367500000000       0.000000000000
       286    3       10.215555000000      14.338055000000       1.970555000000
       287    2        0.000000000000       4.122500000000       8.245000000000
       288    3       14.519445000000       2.151945000000       6.274445000000
       289    2        0.000000000000       0.000000000000      12.367500000000
       290    3       14.519445000000      14.519445000000      10.396945000000
       291    2        8.245000000000       8.245000000000       4.122500000000
       292    3       10.215555000000      10.215555000000       6.093055000000
       293    3        2.151945000000      16.399305000000       8.154305000000
       294    3       14.338055000000       4.213195000000      12.458195000000
       295    3        8.154305000000      16.399305000000      10.396945000000
       296    3       12.458195000000       4.213195000000       6.093055000000
       297    3        4.031805000000      14.519445000000       8.154305000000
       298    3        8.335695000000      10.215555000000      12.458195000000
       299    3       14.519445000000       8.154305000000      12.276805000000
       300    3       10.215555000000      12.458195000000       0.090695000000
       301    2        0.000000000000      12.367500000000       8.245000000000
       302    3       14.519445000000      10.396945000000       6.274445000000
       303    2        8.245000000000       4.122500000000       0.000000000000
       304    3       10.215555000000       6.093055000000       1.970555000000
       305    2        8.245000000000       8.245000000000      12.367500000000
       306    3       10.215555000000      10.215555000000      14.338055000000
       307    2        0.000000000000       0.000000000000       4.122500000000
       308    3       14.519445000000      14.519445000000       2.151945000000
       309    3        6.093055000000       8.335695000000       0.090695000000
       310    3       10.396945000000       4.031805000000      12.276805000000
       311    3        1.970555000000      12.458195000000       8.335695000000
       312    3        6.274445000000       8.154305000000       4.031805000000
       313    3        6.274445000000      12.276805000000      16.399305000000
       314    3        1.970555000000       0.090695000000       4.213195000000
       315    3       12.276805000000       2.151945000000       4.031805000000
       316    3        0.090695000000      14.338055000000       8.335695000000
       317    3       12.458195000000       6.093055000000       4.213195000000
       318    3        8.154305000000      10.396945000000      16.399305000000
       319    3        2.151945000000      14.519445000000       6.274445000000
       320    3       14.338055000000      10.215555000000       1.970555000000
       321    3        2.151945000000       4.031805000000      12.276805000000
       322    3       14.338055000000       8.335695000000       0.090695000000
       323    3        6.274445000000       2.151945000000      14.519445000000
       324    3        1.970555000000      14.338055000000      10.215555000000
       325    3        1.970555000000       1.970555000000       6.093055000000
       326    3        6.274445000000       6.274445000000      10.396945000000
       327    3        4.031805000000       6.274445000000       8.154305000000
       328    3        8.335695000000       1.970555000000      12.458195000000
       329    3       16.399305000000       8.154305000000      10.396945000000
       330    3        4.213195000000      12.458195000000       6.093055000000
       331    3        6.093055000000      10.215555000000       1.970555000000
       332    3       10.396945000000      14.519445000000       6.274445000000
       333    3        6.093055000000       4.213195000000      12.458195000000
       334    3       10.396945000000      16.399305000000       8.154305000000
       335    3        1.970555000000       6.093055000000      10.215555000000
       336    3        6.274445000000      10.396945000000      14.519445000000
       337    3        6.274445000000       6.274445000000       2.151945000000
       338    3        1.970555000000       1.970555000000      14.338055000000
       339    3        4.213195000000       1.970555000000       0.090695000000
       340    3       16.399305000000       6.274445000000      12.276805000000
       341    3        8.335695000000       0.090695000000      14.338055000000
       342    3        4.031805000000      12.276805000000       2.151945000000
       343    3       12.276805000000      16.399305000000      14.519445000000
       344    3        0.090695000000       4.213195000000      10.215555000000
       345    3       12.458195000000      14.338055000000       4.213195000000
       346    3        8.154305000000       2.151945000000      16.399305000000
       347    3       12.458195000000       8.335695000000      10.215555000000
       348    3        8.154305000000       4.031805000000      14.519445000000
       349    3       12.276805000000      10.396945000000       4.031805000000
       350    3        0.090695000000       6.093055000000       8.335695000000
       351    3       14.519445000000       6.274445000000       2.151945000000
       352    3       10.215555000000       1.970555000000      14.338055000000
       353    2        4.122500000000       0.000000000000       0.000000000000
       354    3        6.093055000000       1.970555000000       1.970555000000
       355    2       12.367500000000       8.245000000000       8.245000000000
       356    3       10.396945000000       6.274445000000       6.274445000000
       357    3       10.215555000000       1.970555000000       6.093055000000
       358    3       14.519445000000       6.274445000000      10.396945000000
       359    2        4.122500000000       8.245000000000       8.245000000000
       360    3        2.151945000000       6.274445000000       6.274445000000
       361    2       12.367500000000       0.000000000000       0.000000000000
       362    3       14.338055000000       1.970555000000       1.970555000000
       363    3       10.396945000000       2.151945000000       2.151945000000
       364    3        6.093055000000      14.338055000000      14.338055000000
       365    2       10.306250000000      10.306250000000       4.122500000000
       366    3        8.335695000000       8.335695000000       6.093055000000
       367    2        2.061250000000       2.061250000000      12.367500000000
       368    3        4.031805000000       4.031805000000      10.396945000000
       369    2       14.428750000000      14.428750000000      12.367500000000