LAMMPS (30 Jul 2021)
OMP_NUM_THREADS environment is not set. Defaulting to 1 thread. (src/comm.cpp:98)
  using 1 OpenMP thread(s) per MPI task
# LMO uniaxial tensile test, Prateek Gandhi, October 2021.

##---------------INITIALIZATION-------------------------------

units          metal
dimension 	    3
boundary       p p p
atom_style 	atomic
newton 		on


##---------------ATOM DEFINITION------------------------------

read_data 	limn2o4Super2.lmp
Reading data file ...
  orthogonal box = (0.0000000 0.0000000 0.0000000) to (16.490000 16.490000 16.490000)
  1 by 1 by 1 MPI processor grid
  reading atoms ...
  448 atoms
  read_data CPU = 0.037 seconds


##---------------FORCE FIELDS---------------------------------

pair_style 	meam
pair_coeff     * * library.meam Li Mn O library.meam_alloy Li Mn O


##---------------SETTINGS-------------------------------------

timestep 	0.00001
variable   ts equal 0.00001


##---------------COMPUTES-------------------------------------

compute 	1 all stress/atom NULL
compute    2 all reduce sum c_1[1] c_1[2]


variable   Lx equal lx
variable   Ly equal ly
variable   Lz equal lz
variable   Vol equal vol
variable   thickn equal 8.245
fix 1 all npt temp 300 300 1 iso 0 0 1 drag 1
thermo 	2000
##---------------RELAXATION--------------------------------------

run            50000
Neighbor list info ...
  update every 1 steps, delay 10 steps, check yes
  max neighbors/atom: 2000, page size: 100000
  master list distance cutoff = 6.8
  ghost atom cutoff = 6.8
  binsize = 3.4, bins = 5 5 5
  2 neighbor lists, perpetual/occasional/extra = 2 0 0
  (1) pair meam, perpetual
      attributes: full, newton on
      pair build: full/bin/atomonly
      stencil: full/bin/3d
      bin: standard
  (2) pair meam, perpetual, half/full from (1)
      attributes: half, newton on
      pair build: halffull/newton
      stencil: none
      bin: none
Per MPI rank memory allocation (min/avg/max) = 9.887 | 9.887 | 9.887 Mbytes
Step Temp E_pair E_mol TotEng Press Volume 
       0            0   -856.75623            0   -856.75623    44246.373    4483.9624 
    2000    47.564806   -860.06885            0   -857.32059    29265.921     4509.892 
    4000    39.906372   -860.48766            0    -858.1819    12770.356    4573.2859 
    6000    4.7166038   -858.78681            0   -858.51429    3354.7714    4651.0178 
    8000    50.381858    -861.1324            0   -858.22137   -19269.586     4723.104 
   10000     2.546117   -857.76208            0   -857.61497   -28193.568     4762.678 
   12000     41.30138   -860.04222            0   -857.65586   -23440.474    4759.4005 
   14000     17.93339   -859.01771            0   -857.98153   -13289.386    4726.0443 
   16000    24.284215   -859.79585            0   -858.39273   -11397.289    4678.1714 
   18000    49.445399   -861.41719            0   -858.56027    586.61869    4623.9074 
   20000 0.0040244144   -858.28879            0   -858.28855    19620.209    4580.8179 
   22000    51.185172   -861.05035            0   -858.09291    14783.002    4564.9805 
   24000    33.101321   -860.05923            0   -858.14666     13430.73    4571.3481 
   26000    7.2286598   -858.74948            0   -858.33182    15719.777    4594.6593 
   28000    55.554834   -861.74915            0   -858.53923   -208.28357    4632.3072 
   30000    5.8062748   -858.76015            0   -858.42467   -8467.1656    4667.3084 
   32000     36.66195   -860.39884            0   -858.28054   -8084.4279    4687.3403 
   34000    30.400729   -860.00672            0   -858.25019     -8706.58    4694.5109 
   36000    10.886867   -858.91759            0   -858.28856   -13253.393    4688.5715 
   38000    55.131477   -861.62125            0   -858.43579    -8199.589    4665.9512 
   40000    1.6603819   -858.51884            0   -858.42291    6930.7363    4637.0164 
   42000      46.7514   -861.05486            0    -858.3536     2266.402    4616.4535 
   44000    36.830762   -860.43619            0   -858.30813    5667.5118     4602.599 
   46000    5.6356117   -858.60423            0    -858.2786    15151.044    4598.5797 
   48000    58.651988   -861.74154            0   -858.35267    4404.6978    4611.2767 
   50000    9.5342757   -858.91878            0    -858.3679   -188.46895    4630.8093 
Loop time of 884.067 on 1 procs for 50000 steps with 448 atoms

Performance: 0.049 ns/day, 491.148 hours/ns, 56.557 timesteps/s
91.2% CPU use with 1 MPI tasks x 1 OpenMP threads

MPI task timing breakdown:
Section |  min time  |  avg time  |  max time  |%varavg| %total
---------------------------------------------------------------
Pair    | 870.95     | 870.95     | 870.95     |   0.0 | 98.52
Neigh   | 0          | 0          | 0          |   0.0 |  0.00
Comm    | 1.0264     | 1.0264     | 1.0264     |   0.0 |  0.12
Output  | 0.0070302  | 0.0070302  | 0.0070302  |   0.0 |  0.00
Modify  | 11.651     | 11.651     | 11.651     |   0.0 |  1.32
Other   |            | 0.428      |            |       |  0.05

Nlocal:        448.000 ave         448 max         448 min
Histogram: 1 0 0 0 0 0 0 0 0 0
Nghost:        2426.00 ave        2426 max        2426 min
Histogram: 1 0 0 0 0 0 0 0 0 0
Neighs:        31104.0 ave       31104 max       31104 min
Histogram: 1 0 0 0 0 0 0 0 0 0
FullNghs:      62208.0 ave       62208 max       62208 min
Histogram: 1 0 0 0 0 0 0 0 0 0

Total # of neighbors = 62208
Ave neighs/atom = 138.85714
Neighbor list builds = 0
Dangerous builds = 0


##---------------DEFORMATION--------------------------------------
unfix              1
reset_timestep     0
fix		1 all npt temp 300 300 1 y 0 0 1 z 0 0 1 drag 1
fix        2 all ave/time 1 100 100 c_2[1] c_2[2]
fix        3 all ave/time 1 100 100 v_Lx v_Ly v_Lz v_Vol
variable   srate equal 1.0e11
variable   srate1 equal "v_srate / 1.0e12"
fix		4 all deform 1 x erate ${srate1} units box remap x
fix		4 all deform 1 x erate 0.1 units box remap x
run            100
Per MPI rank memory allocation (min/avg/max) = 9.887 | 9.887 | 9.887 Mbytes
Step Temp E_pair E_mol TotEng Press Volume 
       0    9.5342757   -858.91878            0    -858.3679   -188.46895    4630.8093 
     100    14.216073   -859.18914            0   -858.36774   -462.51382     4631.272 
Loop time of 1.44917 on 1 procs for 100 steps with 448 atoms

Performance: 0.060 ns/day, 402.547 hours/ns, 69.005 timesteps/s
98.1% CPU use with 1 MPI tasks x 1 OpenMP threads

MPI task timing breakdown:
Section |  min time  |  avg time  |  max time  |%varavg| %total
---------------------------------------------------------------
Pair    | 1.4232     | 1.4232     | 1.4232     |   0.0 | 98.21
Neigh   | 0          | 0          | 0          |   0.0 |  0.00
Comm    | 0.00099993 | 0.00099993 | 0.00099993 |   0.0 |  0.07
Output  | 0          | 0          | 0          |   0.0 |  0.00
Modify  | 0.023926   | 0.023926   | 0.023926   |   0.0 |  1.65
Other   |            | 0.000999   |            |       |  0.07

Nlocal:        448.000 ave         448 max         448 min
Histogram: 1 0 0 0 0 0 0 0 0 0
Nghost:        2426.00 ave        2426 max        2426 min
Histogram: 1 0 0 0 0 0 0 0 0 0
Neighs:        28032.0 ave       28032 max       28032 min
Histogram: 1 0 0 0 0 0 0 0 0 0
FullNghs:      56064.0 ave       56064 max       56064 min
Histogram: 1 0 0 0 0 0 0 0 0 0

Total # of neighbors = 56064
Ave neighs/atom = 125.14286
Neighbor list builds = 0
Dangerous builds = 0
##---------------THERMO-OUTPUTS--------------------------------------
variable   CorVol equal f_3[4]*v_thickn/(f_3[3])
variable   ConvoFac equal 1/1.0e4
variable   sigmaxx equal f_2[1]*v_ConvoFac/v_CorVol
variable   sigmayy equal f_2[2]*v_ConvoFac/v_CorVol
variable   StrainPerTs equal v_srate1*v_ts
variable   strain equal v_StrainPerTs*step
thermo 	100
thermo_style custom step temp v_strain v_sigmaxx v_sigmayy pe ke lx ly vol


##---------------DEFORMATION--------------------------------------
dump           1 all atom 5000 tensile_testat0point001.lammpstrj
run            500000
Per MPI rank memory allocation (min/avg/max) = 10.64 | 10.64 | 10.64 Mbytes
Step Temp v_strain v_sigmaxx v_sigmayy PotEng KinEng Lx Ly Volume 
     100    14.216073       0.0001   0.07705271  0.060069141   -859.18913   0.82139455    16.669749    16.668082     4631.272 
     200    19.479261       0.0002   0.15669174   0.10517841   -859.49295    1.1254978    16.671416    16.668079    4631.7339 
     300    25.109067       0.0003   0.23674881   0.15030817   -859.81781    1.4507839    16.673083    16.668075    4632.1944 
     400    30.880129       0.0004   0.31442448   0.19257703   -860.15069    1.7842318     16.67475    16.668066    4632.6529 
     500    36.566447       0.0005   0.38686107   0.22903738   -860.47855    2.1127831    16.676417    16.668054     4633.109 
     600    41.950784       0.0006   0.45131532   0.25689522   -860.78884    2.4238863    16.678084    16.668036    4633.5623 
     700    46.833154       0.0007   0.50530352   0.27362685   -861.07003    2.7059861    16.679751    16.668013    4634.0126 
     800    51.038017       0.0008   0.54667684   0.27702143   -861.31198    2.9489401    16.681418    16.667984    4634.4598 
     900    54.419946       0.0009   0.57371572   0.26536144   -861.50634    3.1443456    16.683085     16.66795    4634.9039 
    1000    56.867781        0.001   0.58522517   0.23746943   -861.64668    3.2857797    16.684752    16.667911    4635.3451 
    1100    58.307148       0.0011   0.58056674   0.19268579   -861.72874    3.3689453    16.686419    16.667867    4635.7839 
    1200    58.701505       0.0012   0.55963556   0.13099451   -861.75045     3.391731    16.688086     16.66782    4636.2209 
    1300    58.051804       0.0013   0.52294424    0.0529504   -861.71186    3.3541917    16.689753    16.667771    4636.6569 
    1400    56.394956       0.0014   0.47153162 -0.040334464   -861.61516    3.2584602     16.69142    16.667722    4637.0928 
    1500    53.801293       0.0015   0.40691548  -0.14718831   -861.46441    3.1086002    16.693087    16.667676    4637.5299 
    1600    50.371128       0.0016   0.33110916    -0.265519   -861.26544    2.9104078    16.694754    16.667633    4637.9693 
    1700    46.230646       0.0017   0.24648663  -0.39277188   -861.02556    2.6711737    16.696421    16.667597    4638.4126 
    1800     41.52722       0.0018   0.15572746  -0.52608749   -860.75331    2.3994131    16.698087    16.667571    4638.8611 
    1900    36.424331       0.0019  0.061763158  -0.66238998   -860.45814    2.1045718    16.699754    16.667557    4639.3164 
    2000    31.096163        0.002 -0.032338436  -0.79839075   -860.15013    1.7967141    16.701421    16.667558    4639.7801 
    2100    25.722024       0.0021  -0.12346232  -0.93076309   -859.83965    1.4862002    16.703088    16.667577    4640.2537 
    2200    20.480744       0.0022  -0.20850865   -1.0562345   -859.53704    1.1833627    16.704755    16.667616    4640.7386 
    2300    15.545112       0.0023  -0.28445994   -1.1715871   -859.25228   0.89818547    16.706422    16.667678    4641.2363 
    2400    11.076588       0.0024  -0.34853347   -1.2738404    -858.9947   0.63999734    16.708089    16.667765    4641.7479 
    2500    7.2203177       0.0025  -0.39819249   -1.3602753   -858.77266   0.41718479    16.709756    16.667879    4642.2745 
    2600    4.1006892       0.0026  -0.43122012   -1.4285311   -858.59334   0.23693489    16.711423    16.668022     4642.817 
    2700    1.8175372       0.0027  -0.44580805   -1.4766651   -858.46248     0.105016     16.71309    16.668194     4643.376 
    2800   0.44308583       0.0028  -0.44057492   -1.5031834   -858.38421  0.025601182    16.714757    16.668396    4643.9519 
    2900  0.019766935       0.0029  -0.41460709   -1.5070863   -858.36094 0.0011421194    16.716424     16.66863     4644.545 
    3000    0.5589794        0.003  -0.36749315    -1.487904    -858.3933   0.03229743    16.718091    16.668893     4645.155 
    3100    2.0408254       0.0031  -0.29933036   -1.4457037   -858.48007   0.11791743    16.719758    16.669186    4645.7816 
    3200    4.4148319       0.0032  -0.21071854   -1.3810834   -858.61828   0.25508583    16.721425    16.669508    4646.4241 
    3300    7.6016267       0.0033  -0.10275149   -1.2951623    -858.8033   0.43921656    16.723092    16.669857    4647.0817 
    3400    11.495509       0.0034  0.023022055    -1.189541   -859.02896   0.66420227    16.724759     16.67023    4647.7533 
    3500    15.967823       0.0035   0.16465986   -1.0662387   -859.28776   0.92260941    16.726426    16.670626    4648.4375 
    3600    20.871024       0.0036   0.31986137  -0.92766194   -859.57115    1.2059128    16.728093    16.671042    4649.1328 
    3700    26.043254       0.0037   0.48598448  -0.77657807   -859.86971    1.5047606     16.72976    16.671475    4649.8375 
    3800    31.313411       0.0038   0.66019916  -0.61596277   -860.17354    1.8092665    16.731427    16.671922    4650.5498 
    3900    36.506366       0.0039     0.839502  -0.44898288   -860.47249    2.1093117    16.733094    16.672378    4651.2679 
    4000    41.448401        0.004    1.0208616  -0.27884804    -860.7565     2.394859    16.734761    16.672841    4651.9897 
    4100    45.972568       0.0041    1.2011852  -0.10883939   -861.01594    2.6562621    16.736428    16.673308    4652.7133 
    4200    49.923956       0.0042    1.3775402   0.05791187   -861.24187    2.8845705    16.738095    16.673773    4653.4368 
    4300    53.164651       0.0043    1.5471474   0.21843143   -861.42632    3.0718155    16.739762    16.674236    4654.1583 
    4400    55.578389       0.0044    1.7074464    0.3699593   -861.56262    3.2112796    16.741429    16.674691    4654.8759 
    4500    57.074689       0.0045    1.8562662   0.51012994   -861.64558    3.2977347    16.743096    16.675136    4655.5881 
    4600    57.592439       0.0046    1.9917685   0.63692624   -861.67171    3.3276499    16.744763    16.675569    4656.2932 
    4700    57.102717       0.0047    2.1125868   0.74879644   -861.63938    3.2993541     16.74643    16.675987      4656.99 
    4800    55.610818       0.0048    2.2178451   0.84471234   -861.54895    3.2131533    16.748097    16.676387    4657.6772 
    4900    53.157307       0.0049    2.3071791   0.92414534   -861.40282    3.0713912    16.749764    16.676768    4658.3538 
    5000    49.817875        0.005    2.3807891   0.98715738   -861.20542    2.8784412    16.751431    16.677129     4659.019 
    5100    45.702037       0.0051    2.4393594    1.0342982    -860.9631     2.640631    16.753098    16.677468    4659.6722 
    5200    40.950444       0.0052    2.4841567    1.0666825   -860.68404    2.3660874    16.754765    16.677785     4660.313 
    5300    35.730803       0.0053    2.5168677    1.0858866   -860.37796    2.0645002    16.756432    16.678079     4660.941 
    5400    30.232429       0.0054    2.5395762    1.0938459   -860.05583    1.7468081    16.758099     16.67835    4661.5562 
    5500    24.659569       0.0055    2.5547469    1.0928896   -859.72947    1.4248123    16.759766    16.678598    4662.1585 
    5600    19.223575       0.0056     2.564961     1.085486   -859.41109    1.1107244    16.761433    16.678823     4662.748 
    5700    14.134443       0.0057    2.5729798    1.0742493   -859.11283   0.81667799      16.7631    16.679026    4663.3249 
    5800    9.5918263       0.0058    2.5814804    1.0617012   -858.84623   0.55420886    16.764766    16.679205    4663.8892 
    5900    5.7762516       0.0059    2.5930026    1.0502631    -858.6217   0.33374768    16.766433    16.679363    4664.4411 
    6000    2.8408557        0.006    2.6098012    1.0420599   -858.44808   0.16414261      16.7681    16.679499    4664.9808 
    6100   0.90418688       0.0061    2.6337041    1.0387907   -858.33219  0.052243271    16.769767    16.679613    4665.5083 
    6200  0.044560984       0.0062    2.6660584    1.0416844   -858.27853 0.0025747018    16.771434    16.679705    4666.0237 
    6300   0.29630693       0.0063    2.7076567    1.0514294   -858.28908  0.017120402    16.773101    16.679776     4666.527 
    6400    1.6481558       0.0064    2.7586785    1.0681217   -858.36314  0.095229264    16.774768    16.679824    4667.0179 
    6500    4.0438886       0.0065    2.8186849    1.0912593   -858.49746   0.23365299    16.776435     16.67985    4667.4963 
    6600    7.3851892       0.0066    2.8866547    1.1197776   -858.68632   0.42671095    16.778102    16.679853    4667.9619 
    6700     11.53649       0.0067    2.9610524     1.152121   -858.92189   0.66657014    16.779769    16.679833    4668.4143 
    6800     16.33152       0.0068    3.0398657    1.1862814   -859.19455   0.94362352    16.781436    16.679789    4668.8532 
    6900    21.581107       0.0069    3.1207281    1.2199027   -859.49335    1.2469409    16.783103     16.67972    4669.2782 
    7000    27.081687        0.007    3.2011112    1.2504781   -859.80654    1.5647605     16.78477    16.679625     4669.689 
    7100    32.624193       0.0071    3.2783217    1.2753658   -860.12205    1.8850025    16.786437    16.679504    4670.0853 
    7200    38.002616       0.0072      3.34976     1.292037   -860.42797     2.195764    16.788104    16.679357    4670.4668 
    7300    43.022056       0.0073    3.4128978     1.298043   -860.71306    2.4857836    16.789771    16.679184    4670.8334 
    7400    47.505729       0.0074    3.4655296    1.2912796   -860.96713     2.744847    16.791438    16.678984    4671.1852 
    7500    51.300882       0.0075    3.5057845    1.2700004   -861.18135    2.9641283    16.793105    16.678758    4671.5223 
    7600     54.28332       0.0076    3.5321845    1.2328588   -861.34858    3.1364514    16.794772    16.678507    4671.8451 
    7700    56.360586       0.0077    3.5437445     1.179065   -861.46348    3.2564743    16.796439    16.678231    4672.1541 
    7800    57.473815       0.0078    3.5400017    1.1083294   -861.52268    3.3207959    16.798106    16.677931    4672.4502 
    7900    57.598314       0.0079    3.5209644    1.0208918   -861.52476    3.3279894    16.799773    16.677611    4672.7341 
    8000    56.743034        0.008    3.4871614   0.91756525   -861.47024    3.2785719     16.80144     16.67727    4673.0071 
    8100    54.948994       0.0081    3.4396298   0.79962899   -861.36152    3.1749136    16.803107    16.676913    4673.2705 
    8200     52.28691       0.0082    3.3798005   0.66888368   -861.20269    3.0211003    16.804774    16.676541    4673.5256 
    8300    48.854078       0.0083     3.309518   0.52751055   -860.99937    2.8227537    16.806441    16.676157    4673.7742 
    8400    44.770682       0.0084    3.2309699   0.37805526   -860.75852     2.586818    16.808108    16.675765    4674.0179 
    8500    40.175608       0.0085    3.1465861   0.22339178   -860.48817    2.3213179    16.809775    16.675367    4674.2584 
    8600    35.221911       0.0086    3.0590066  0.066543045   -860.19717    2.0350968    16.811442    16.674967    4674.4976 
    8700    30.072031       0.0087    2.9710044 -0.089303306   -859.89491    1.7375405    16.813109    16.674568    4674.7374 
    8800      24.8928       0.0088    2.8854038  -0.24088528   -859.59103    1.4382882    16.814776    16.674173    4674.9794 
    8900    19.850447       0.0089    2.8049669  -0.38504769   -859.29515    1.1469446    16.816443    16.673786    4675.2255 
    9000    15.105608        0.009    2.7324224  -0.51868612   -859.01653   0.87279124     16.81811    16.673408    4675.4772 
    9100    10.808589       0.0091    2.6702824   -0.6389286   -858.76386   0.62451253    16.819777    16.673043    4675.7359 
    9200    7.0948479       0.0092    2.6208681  -0.74313282   -858.54497   0.40993524    16.821444    16.672693    4676.0031 
    9300    4.0809744       0.0093    2.5861799   -0.8290211   -858.36658   0.23579578    16.823111     16.67236    4676.2797 
    9400    1.8612006       0.0094      2.56787   -0.8947084   -858.23413   0.10753884    16.824778    16.672046    4676.5667 
    9500   0.50457459       0.0095    2.5672207  -0.93872482   -858.15157  0.029153959    16.826445    16.671751    4676.8647 
    9600  0.052897874       0.0096    2.5850962  -0.96006947   -858.12132 0.0030564013    16.828112    16.671477     4677.174 
    9700   0.51949236       0.0097    2.6219084  -0.95824531   -858.14411  0.030015897    16.829778    16.671223    4677.4947 
    9800    1.8888338       0.0098    2.6776154  -0.93326098   -858.21901   0.10913547    16.831445    16.670989    4677.8267 
    9900    4.1170683       0.0099    2.7517234  -0.88562864   -858.34345   0.23788126    16.833112    16.670774    4678.1694 
   10000    7.1333875         0.01    2.8432926  -0.81635868   -858.51333   0.41216203    16.834779    16.670577    4678.5224 
   10100    10.842215       0.0101    2.9509734  -0.72692859   -858.72306    0.6264554    16.836446    16.670397    4678.8845 
   10200     15.12613       0.0102    3.0730469  -0.61922303   -858.96585   0.87397695    16.838113    16.670231    4679.2546 
   10300     19.84944       0.0103    3.2074628  -0.49550467   -859.23382    1.1468864     16.83978    16.670077    4679.6314 
   10400    24.862238       0.0104    3.3518553  -0.35839943   -859.51829    1.4365223    16.841447    16.669932    4680.0133 
   10500    30.004919       0.0105    3.5036811  -0.21075794   -859.81002    1.7336628    16.843114    16.669794    4680.3987 
   10600    35.112894       0.0106    3.6602416 -0.055630612   -860.09948    2.0287979    16.844781    16.669658    4680.7858 
   10700    40.021505       0.0107    3.8187661   0.10385678   -860.37717    2.3124139    16.846448    16.669522    4681.1727 
   10800    44.570933       0.0108    3.9764346   0.26448884   -860.63385    2.5752766    16.848115    16.669383    4681.5577 
   10900    48.611059       0.0109    4.1305557   0.42314601   -860.86086    2.8087122    16.849782    16.669237    4681.9387 
   11000    52.006065        0.011    4.2785431   0.57683756   -861.05038    3.0048732    16.851449    16.669081    4682.3141 
   11100    54.638836       0.0111    4.4180021   0.72274486   -861.19568    3.1569929    16.853116    16.668911    4682.6821 
   11200    56.414921       0.0112    4.5468664   0.85837997   -861.29131    3.2596138    16.854783    16.668726     4683.041 
   11300     57.26603       0.0113    4.6633566   0.98158013   -861.33339    3.3087902     16.85645    16.668521    4683.3893 
   11400    57.152948       0.0114    4.7660945    1.0905725   -861.31967    3.3022564    16.858117    16.668296    4683.7258 
   11500    56.067728       0.0115    4.8541659    1.1840929   -861.24975    3.2395532    16.859784    16.668047    4684.0492 
   11600    54.035107       0.0116    4.9270892     1.261317   -861.12509    3.1221098    16.861451    16.667774    4684.3585 
   11700     51.11287       0.0117    4.9849185      1.32197   -860.94906    2.9532651    16.863118    16.667474    4684.6531 
   11800    47.391217       0.0118    5.0281686    1.3662757   -860.72691    2.7382306    16.864785    16.667146    4684.9322 
   11900    42.990926       0.0119    5.0578816    1.3949619   -860.46565    2.4839849    16.866452    16.666791    4685.1955 
   12000    38.060198        0.012    5.0755611    1.4092565   -860.17386     2.199091    16.868119    16.666407    4685.4428 
   12100     32.77029       0.0121    5.0830816    1.4107502   -859.86144    1.8934439    16.869786    16.665995     4685.674 
   12200    27.309904       0.0122    5.0827409     1.401428   -859.53931    1.5779467    16.871453    16.665554    4685.8891 
   12300    21.878414       0.0123    5.0770251    1.3835047   -859.21899    1.2641191     16.87312    16.665085    4686.0884 
   12400    16.678336       0.0124    5.0686197    1.3593715   -858.91217    0.9636623    16.874787    16.664589    4686.2721 
   12500    11.907095       0.0125    5.0602144    1.3314014   -858.63025   0.68798343    16.876454    16.664065    4686.4406 
   12600    7.7487333       0.0126    5.0544795    1.3019655   -858.38386   0.44771627    16.878121    16.663516    4686.5942 
   12700    4.3657641       0.0127    5.0538095    1.2731911   -858.18235   0.25225073    16.879788     16.66294    4686.7333 
   12800    1.8918065       0.0128    5.0602936    1.2469038   -858.03343   0.10930723    16.881455    16.662339    4686.8582 
   12900   0.42536365       0.0129    5.0756138    1.2245494   -857.94275  0.024577208    16.883122    16.661714    4686.9692 
   13000  0.025137829        0.013    5.1009314    1.2070918    -857.9137 0.0014524458    16.884789    16.661065    4687.0666 
   13100   0.70720946       0.0131    5.1368332    1.1949692   -857.94716  0.040862057    16.886456    16.660392    4687.1507 
   13200    2.4442613       0.0132    5.1833043    1.1880741   -858.04154   0.14122767    16.888123    16.659695    4687.2214 
   13300    5.1668971       0.0133    5.2397335    1.1857583   -858.19279   0.29853962     16.88979    16.658975    4687.2789 
   13400    8.7669707       0.0134    5.3049426    1.1868616   -858.39465    0.5065493    16.891457    16.658232    4687.3233 
   13500    13.102709       0.0135    5.3772432    1.1897648    -858.6389   0.75706513    16.893124    16.657465    4687.3545 
   13600    18.005251       0.0136    5.4545695    1.1925051   -858.91577    1.0403305    16.894791    16.656676    4687.3725 
   13700    23.286279       0.0137    5.5345282    1.1928413   -859.21437    1.3454645    16.896457    16.655863    4687.3773 
   13800    28.746244       0.0138    5.6145224    1.1883702   -859.52315    1.6609374    16.898124    16.655026     4687.369 
   13900    34.182664       0.0139    5.6919477    1.1766969   -859.83039    1.9750499    16.899791    16.654167    4687.3477 
   14000    39.398221        0.014    5.7641989    1.1554291    -860.1247     2.276401    16.901458    16.653285    4687.3135 
   14100    44.208123       0.0141    5.8288664    1.1224515   -860.39539    2.5543137    16.903125    16.652381    4687.2669 
   14200    48.446582       0.0142    5.8837969    1.0759039   -860.63288    2.7992089    16.904792    16.651456    4687.2083 
   14300    51.972133       0.0143    5.9271959    1.0142821   -860.82898    3.0029126    16.906459    16.650511    4687.1384 
   14400    54.671687       0.0144    5.9576867   0.93659276   -860.97716     3.158891    16.908126    16.649547    4687.0579 
   14500     56.46332       0.0145    5.9743151   0.84226789   -861.07269    3.2624103    16.909793    16.648567     4686.968 
   14600    57.297839       0.0146    5.9766345   0.73130501   -861.11272    3.3106281     16.91146    16.647572    4686.8699 
   14700    57.159133       0.0147    5.9646727   0.60420996   -861.09631    3.3026138    16.913127    16.646565    4686.7648 
   14800    56.063492       0.0148    5.9389071   0.46201981   -861.02442    3.2393085    16.914794    16.645549    4686.6545 
   14900    54.058026       0.0149    5.9002853   0.30627216   -860.89976    3.1234341    16.916461    16.644526    4686.5407 
   15000    51.218242        0.015    5.8501448   0.13892357    -860.7267    2.9593534    16.918128    16.643501    4686.4253 
   15100    47.644971       0.0151    5.7901657 -0.037609901   -860.51109    2.7528924    16.919795    16.642477    4686.3103 
   15200    43.460701       0.0152    5.7223646  -0.22062881      -860.26    2.5111282    16.921462    16.641458    4686.1978 
   15300    38.805507       0.0153    5.6489817  -0.40713416   -859.98156    2.2421545    16.923129    16.640447      4686.09 
   15400    33.832566       0.0154    5.5724193  -0.59394008   -859.68462    1.9548215    16.924796    16.639448    4685.9889 
   15500    28.703417       0.0155    5.4952193  -0.77776941   -859.37856    1.6584629    16.926463    16.638465    4685.8969 
   15600     23.58312       0.0156    5.4199485  -0.95530065   -859.07293    1.3626158     16.92813    16.637502     4685.816 
   15700     18.63527       0.0157     5.349178   -1.1232534   -858.77721    1.0767326    16.929797    16.636563    4685.7482 
   15800    14.017156       0.0158    5.2853277   -1.2785468   -858.50051   0.80990122    16.931464     16.63565    4685.6954 
   15900    9.8750393       0.0159    5.2307186   -1.4182457   -858.25133   0.57057271    16.933131    16.634767    4685.6592 
   16000    6.3398064        0.016    5.1874274   -1.5397311   -858.03724   0.36630948    16.934798    16.633916    4685.6412 
   16100    3.5230228       0.0161    5.1572527   -1.6407428    -857.8647   0.20355774    16.936465      16.6331    4685.6427 
   16200    1.5135501       0.0162     5.141691   -1.7194104   -857.73888   0.08745184    16.938132     16.63232    4685.6646 
   16300   0.37485846       0.0163    5.1418618   -1.7743277   -857.66344  0.021659054    16.939799    16.631579    4685.7077 
   16400    0.1430941       0.0164    5.1584861   -1.8045723   -857.64047 0.0082678746    16.941466    16.630875    4685.7725 
   16500   0.82597489       0.0165    5.1918729    -1.809728   -857.67042  0.047724238    16.943133    16.630211    4685.8591 
   16600    2.4025581       0.0166    5.2419084   -1.7898966   -857.75205   0.13881809      16.9448    16.629585    4685.9675 
   16700    4.8238865       0.0167     5.308059   -1.7456946   -857.88254   0.27872071    16.946467    16.628997    4686.0971 
   16800    8.0144898       0.0168    5.3893872    -1.678234   -858.05749   0.46307149    16.948134    16.628446    4686.2474 
   16900    11.874677       0.0169    5.4845625   -1.5891027   -858.27111   0.68611037    16.949801     16.62793    4686.4173 
   17000    16.283553        0.017    5.5919067   -1.4803258   -858.51639   0.94085203    16.951468    16.627446    4686.6058 
   17100     21.10267       0.0171    5.7094637    -1.354293    -858.7853    1.2192972    16.953135    16.626993    4686.8113 
   17200    26.180165       0.0172    5.8350106   -1.2137481   -859.06905    1.5126712    16.954802    16.626568    4687.0322 
   17300    31.355272       0.0173     5.966158   -1.0616796   -859.35832    1.8116852    16.956469    16.626167    4687.2669 
   17400    36.463101       0.0174    6.1003858  -0.90122835   -859.64356    2.1068119    16.958136    16.625787    4687.5135 
   17500    41.339539       0.0175    6.2350994  -0.73568301   -859.91528     2.388569    16.959803    16.625425    4687.7701 
   17600     45.82616       0.0176    6.3677353  -0.56835728   -860.16432    2.6478028     16.96147    16.625077    4688.0346 
   17700    49.775032       0.0177    6.4958358  -0.40245258   -860.38214    2.8759657    16.963136     16.62474    4688.3052 
   17800    53.053316       0.0178    6.6170352  -0.24109635   -860.56107    3.0653826    16.964803     16.62441    4688.5799 
   17900    55.547588       0.0179    6.7292193 -0.087162709   -860.69457    3.2094999     16.96647    16.624084    4688.8568 
   18000    57.167728        0.018    6.8305639  0.056788949   -860.77747    3.3031104    16.968137    16.623759    4689.1342 
   18100    57.850344       0.0181    6.9195267   0.18850581   -860.80611    3.3425515    16.969804    16.623432    4689.4104 
   18200    57.561539       0.0182    6.9949921   0.30621522   -860.77859    3.3258645    16.971471    16.623101    4689.6841 
   18300    56.299017       0.0183    7.0562627   0.40856997   -860.69479    3.2529169    16.973138    16.622763    4689.9538 
   18400    54.093288       0.0184    7.1030849   0.49475259   -860.55651    3.1254715    16.974805    16.622416    4690.2186 
   18500    51.007882       0.0185    7.1357182   0.56445252   -860.36745    2.9471989    16.976472    16.622058    4690.4775 
   18600    47.138512       0.0186    7.1548768   0.61786036   -860.13318    2.7236295    16.978139    16.621689    4690.7298 
   18700    42.610995       0.0187    7.1617889   0.65572338   -859.86098    2.4620328    16.979806    16.621308     4690.975 
   18800    37.577918       0.0188    7.1581275    0.6791885    -859.5597    2.1712252    16.981473    16.620913    4691.2126 
   18900    32.214032       0.0189    7.1459387   0.68983469   -859.23943    1.8613037     16.98314    16.620505    4691.4426 
   19000    26.710464        0.019    7.1276619   0.68960699   -858.91123    1.5433115    16.984807    16.620083    4691.6649 
   19100    21.267816       0.0191    7.1059291   0.68061049    -858.5867    1.2288392    16.986474    16.619647    4691.8796 
   19200    16.088536       0.0192    7.0835592   0.66516057   -858.27751   0.92958412    16.988141    16.619199    4692.0867 
   19300    11.368662       0.0193    7.0633343   0.64554569   -857.99499   0.65687315    16.989808    16.618738    4692.2866 
   19400    7.2895819       0.0194    7.0480111    0.6240017    -857.7496   0.42118683    16.991475    16.618264    4692.4794 
   19500    4.0100451       0.0195    7.0400728   0.60253828   -857.55047   0.23169754    16.993142    16.617778    4692.6655 
   19600    1.6589604       0.0196    7.0416256   0.58284116   -857.40504  0.095853543    16.994809    16.617281    4692.8451 
   19700   0.32943847       0.0197    7.0543493   0.56623565   -857.31865  0.019034719    16.996476    16.616773    4693.0185 
   19800  0.074394723       0.0198    7.0793719   0.55358152   -857.29433 0.0042984739    16.998143    16.616254    4693.1857 
   19900   0.90402486       0.0199     7.117212   0.54522984   -857.33262   0.05223391     16.99981    16.615725     4693.347 
   20000     2.785317         0.02    7.1677554   0.54100761   -857.43158   0.16093362    17.001477    16.615186    4693.5024 
   20100    5.6436302       0.0201    7.2302612   0.54022526   -857.58687   0.32608492    17.003144    16.614636    4693.6519 
   20200    9.3662402       0.0202    7.3033973   0.54170747   -857.79195   0.54117466    17.004811    16.614076    4693.7956 
   20300    13.807604       0.0203    7.3853382   0.54387743   -858.03837   0.79779351    17.006478    16.613505    4693.9335 
   20400    18.796016       0.0204    7.4738566   0.54483433   -858.31619    1.0860204    17.008145    16.612925    4694.0655 
   20500    24.141295       0.0205    7.5663758   0.54237538   -858.61441    1.3948668    17.009812    16.612334    4694.1917 
   20600    29.642935       0.0206    7.6602036   0.53421166   -858.92143    1.7127476    17.011479    16.611733    4694.3121 
   20700    35.098436       0.0207    7.7525624   0.51802432   -859.22554    2.0279625    17.013146    16.611122    4694.4269 
   20800    40.311238       0.0208    7.8407766   0.49160993   -859.51537    2.3291545    17.014813    16.610502    4694.5363 
   20900    45.098027       0.0209    7.9223084   0.45290982   -859.78034    2.6057318     17.01648    16.609873    4694.6407 
   21000    49.295047        0.021    7.9949541   0.40024975   -860.01099    2.8482325    17.018147    16.609237    4694.7407 
   21100    52.763308       0.0211    8.0568444   0.33227498    -860.1993    3.0486262    17.019814    16.608594     4694.837 
   21200    55.392525       0.0212    8.1065257   0.24809927    -860.3389    3.2005405    17.021481    16.607946    4694.9304 
   21300     57.10377       0.0213    8.1429906   0.14736159   -860.42525     3.299415    17.023148    16.607295    4695.0222 
   21400     57.85091       0.0214    8.1657143  0.030174936   -860.45571    3.3425842    17.024815    16.606643    4695.1134 
   21500     57.62091       0.0215    8.1746439  -0.10276639   -860.42954     3.329295    17.026482    16.605993    4695.2057 
   21600    56.433033       0.0216    8.1701571  -0.25030055   -860.34787    3.2606603    17.028149    16.605348    4695.3007 
   21700    54.337175       0.0217    8.1530793  -0.41071193   -860.21362    3.1395631    17.029815    16.604712    4695.4002 
   21800    51.411391       0.0218    8.1246305  -0.58188779   -860.03133    2.9705134    17.031482    16.604086    4695.5061 
   21900     47.75876       0.0219    8.0863493  -0.76129202   -859.80698     2.759467    17.033149    16.603476    4695.6204 
   22000    43.503679        0.022    8.0400629  -0.94605494    -859.5478    2.5136114    17.034816    16.602884    4695.7454 
   22100    38.787695       0.0221    7.9878547   -1.1330689     -859.262    2.2411253    17.036483    16.602316    4695.8831 
   22200     33.76506       0.0222    7.9319583   -1.3190181   -858.95853     1.950921     17.03815    16.601773    4696.0359 
   22300    28.597919       0.0223    7.8747164   -1.5005206   -858.64679    1.6523673    17.039817    16.601261    4696.2057 
   22400    23.451442       0.0224    7.8185085   -1.6741703   -858.33638    1.3550076    17.041484    16.600783    4696.3946 
   22500    18.488897       0.0225    7.7656999   -1.8366207   -858.03675    1.0682752    17.043151    16.600343    4696.6047 
   22600    13.866765       0.0226    7.7185812   -1.9846963   -857.75698   0.80121178    17.044818    16.599943    4696.8377 
   22700    9.7301015       0.0227    7.6792879   -2.1154608   -857.50547    0.5621983    17.046485    16.599586    4697.0952 
   22800    6.2082167       0.0228    7.6497375   -2.2262748   -857.28971   0.35870632    17.048152    16.599275    4697.3786 
   22900    3.4107944       0.0229    7.6316193   -2.3148408   -857.11604   0.19707326    17.049819    16.599012    4697.6891 
   23000    1.4246211        0.023    7.6262998   -2.3793102   -856.98948  0.082313589    17.051486    16.598799    4698.0274 
   23100   0.31098295       0.0231    7.6348091   -2.4182996   -856.91356  0.017968372    17.053153    16.598635    4698.3943 
   23200   0.10383839       0.0232    7.6578132    -2.430919    -856.8902 0.0059997081     17.05482    16.598523    4698.7899 
   23300   0.80882969       0.0233    7.6955913   -2.4167956   -856.91971  0.046733601    17.056487    16.598461    4699.2141 
   23400    2.4031635       0.0234    7.7480264   -2.3760832   -857.00072   0.13885307    17.058154    16.598449    4699.6668 
   23500    4.8363611       0.0235    7.8146088   -2.3094579   -857.13026   0.27944149    17.059821    16.598486     4700.147 
   23600    8.0318515       0.0236    7.8944541   -2.2180993   -857.30386   0.46407464    17.061488    16.598571     4700.654 
   23700     11.88935       0.0237    7.9863376   -2.1036594   -857.51566   0.68695815    17.063155      16.5987    4701.1864 
   23800    16.287939       0.0238    8.0887194   -1.9682281   -857.75861   0.94110545    17.064822    16.598871    4701.7427 
   23900    21.089717       0.0239    8.1997608   -1.8143071   -858.02468    1.2185488    17.066489    16.599081    4702.3212 
   24000    26.143969        0.024    8.3174348   -1.6446735   -858.30512    1.5105798    17.068156    16.599328      4702.92 
   24100    31.291633       0.0241     8.439526   -1.4623765   -858.59068    1.8080082    17.069823    16.599606    4703.5369 
   24200     36.37003       0.0242    8.5637234   -1.2706756   -858.87193    2.1014343     17.07149    16.599912    4704.1698 
   24300    41.217668       0.0243    8.6876889   -1.0729177   -859.13951    2.3815274    17.073157    16.600242    4704.8162 
   24400    45.679023       0.0244    8.8090827  -0.87244457   -859.38441    2.6393013    17.074824    16.600592    4705.4739 
   24500    49.609203       0.0245    8.9256283  -0.67260177   -859.59826    2.8663843    17.076491    16.600957    4706.1404 
   24600    52.878385       0.0246    9.0352409  -0.47653405   -859.77358    3.0552753    17.078158    16.601334    4706.8134 
   24700    55.375911       0.0247    9.1360032  -0.28719957   -859.90399    3.1995805    17.079825    16.601718    4707.4906 
   24800    57.013997       0.0248    9.2262381  -0.10727906   -859.98444     3.294228    17.081492    16.602105    4708.1697 
   24900    57.730919       0.0249    9.3046194  0.060950889   -860.01142    3.3356512    17.083159    16.602492    4708.8489 
   25000    57.493622        0.025     9.370155    0.2155672   -859.98306    3.3219404    17.084826    16.602876    4709.5261 
   25100    56.299565       0.0251    9.4222208   0.35515341   -859.89927    3.2529486    17.086493    16.603253    4710.1995 
   25200    54.177824       0.0252    9.4606686   0.47873623   -859.76178    3.1303559     17.08816    16.603621    4710.8677 
   25300    51.189217       0.0253    9.4857741     0.585894   -859.57416    2.9576763    17.089827    16.603977    4711.5293 
   25400      47.4254       0.0254    9.4982523   0.67666543   -859.34175    2.7402057    17.091494    16.604319    4712.1831 
   25500    43.006858       0.0255    9.4993051   0.75158378   -859.07157    2.4849055    17.093161    16.604646    4712.8281 
   25600    38.079741       0.0256     9.490548   0.81166257    -858.7721    2.2002202    17.094828    16.604955    4713.4635 
   25700    32.811505       0.0257    9.4739577   0.85824038   -858.45305    1.8958253    17.096494    16.605247    4714.0888 
   25800    27.385464       0.0258     9.451884   0.89304065   -858.12503    1.5823125    17.098161     16.60552    4714.7035 
   25900    21.994393       0.0259    9.4268953   0.91799124    -857.7992    1.2708203    17.099828    16.605774    4715.3072 
   26000    16.833355        0.026    9.4016959   0.93513691   -857.48682   0.97261924    17.101495    16.606008    4715.8996 
   26100    12.092078       0.0261    9.3790536   0.94659079   -857.19886   0.69867159    17.103162    16.606221    4716.4807 
   26200    7.9472234       0.0262    9.3616838   0.95439857   -856.94551   0.45918489    17.104829    16.606415    4717.0504 
   26300    4.5549183       0.0263    9.3520325   0.96037855   -856.73576   0.26317992    17.106496    16.606588    4717.6085 
   26400    2.0440144       0.0264    9.3522513   0.96613781   -856.57703   0.11810169    17.108163    16.606741     4718.155 
   26500   0.51037671       0.0265    9.3640424   0.97294158   -856.47483  0.029489201     17.10983    16.606873    4718.6898 
   26600  0.012577112       0.0266     9.388576   0.98164435   -856.43249 0.00072669651    17.111497    16.606985     4719.213 
   26700    0.5692624       0.0267    9.4264414   0.99265033   -856.45107  0.032891574    17.113164    16.607075    4719.7243 
   26800    2.1583556       0.0268    9.4776224    1.0058944   -856.52923   0.12470824    17.114831    16.607145    4720.2237 
   26900    4.7181362       0.0269    9.5414983    1.0208439   -856.66339   0.27261054    17.116498    16.607193    4720.7109 
   27000    8.1501311        0.027    9.6168702    1.0365222   -856.84781   0.47090875    17.118165     16.60722    4721.1859 
   27100    12.323636       0.0271    9.7020122    1.0515517   -857.07492   0.71205087    17.119832    16.607225    4721.6485 
   27200    17.081563       0.0272    9.7947832    1.0642515   -857.33561   0.98696051    17.121499    16.607208    4722.0984 
   27300     22.24726       0.0273    9.8927363    1.0727298   -857.61966    1.2854308    17.123166    16.607168    4722.5357 
   27400    27.631991       0.0274    9.9931667    1.0748797   -857.91616    1.5965567    17.124833    16.607107    4722.9602 
   27500    33.042531       0.0275    10.093382    1.0686033   -858.21394    1.9091738      17.1265    16.607022     4723.372 
   27600    38.288718       0.0276    10.190677    1.0518256   -858.50201    2.2122947    17.128167    16.606916    4723.7713 
   27700    43.190343       0.0277    10.282556    1.0226632   -858.76998    2.4955072    17.129834    16.606788    4724.1583 
   27800    47.583376       0.0278    10.366717    0.9794235   -859.00837    2.7493334    17.131501    16.606639    4724.5335 
   27900     51.32515       0.0279    10.441225   0.92081139   -859.20896    2.9655305    17.133168    16.606471    4724.8974 
   28000    54.298437        0.028    10.504528   0.84588548   -859.36499    3.1373249    17.134835    16.606285     4725.251 
   28100    56.414426       0.0281    10.555472   0.75417295   -859.47135    3.2595852    17.136502    16.606082    4725.5952 
   28200    57.614516       0.0282    10.593334   0.64568008   -859.52469    3.3289256    17.138169    16.605864    4725.9312 
   28300    57.871036       0.0283     10.61786    0.5209066   -859.52342     3.343747    17.139836    16.605635    4726.2604 
   28400    57.187012       0.0284    10.629221   0.38087243   -859.46774    3.3042246    17.141503    16.605397    4726.5845 
   28500    55.595009       0.0285    10.627974   0.22702824   -859.35957    3.2122399     17.14317    16.605153    4726.9051 
   28600    53.155253       0.0286    10.615053  0.061326644    -859.2024    3.0712725    17.144837    16.604906    4727.2242 
   28700    49.953022       0.0287    10.591749  -0.11392879   -859.00119    2.8862499    17.146504     16.60466    4727.5438 
   28800     46.09557       0.0288    10.559631  -0.29604659   -858.76217    2.6633691    17.148171    16.604419    4727.8661 
   28900    41.708528       0.0289     10.52048  -0.48209328   -858.49261    2.4098889    17.149838    16.604186    4728.1932 
   29000     36.93194        0.029    10.476285   -0.6689107   -858.20065    2.1339011    17.151505    16.603966    4728.5273 
   29100    31.916048       0.0291    10.429168  -0.85318221   -857.89497    1.8440865    17.153172    16.603762    4728.8708 
   29200    26.816849       0.0292    10.381306   -1.0316006   -857.58463    1.5494584    17.154839    16.603578    4729.2256 
   29300    21.791539       0.0293    10.334919   -1.2008186   -857.27871    1.2590996    17.156506    16.603418    4729.5939 
   29400    16.994014       0.0294    10.292134   -1.3576247   -856.98615   0.98190198    17.158173    16.603285    4729.9777 
   29500    12.570376       0.0295    10.255037   -1.4989733   -856.71537   0.72630731     17.15984    16.603182    4730.3786 
   29600    8.6547547       0.0296    10.225518   -1.6220976   -856.47415   0.50006554    17.161507    16.603112    4730.7983 
   29700    5.3654008       0.0297    10.205294   -1.7245039   -856.26931   0.31000902    17.163173    16.603078     4731.238 
   29800    2.8012457       0.0298    10.195833   -1.8040749   -856.10656   0.16185397     17.16484     16.60308    4731.6989 
   29900    1.0390258       0.0299    10.198299   -1.8591283   -855.99031  0.060034169    17.166507    16.603121    4732.1816 
   30000   0.13104198         0.03    10.213546   -1.8884315   -855.92356 0.0075715119    17.168174    16.603201    4732.6867 
   30100   0.10364921       0.0301    10.242089   -1.8912321   -855.90779 0.0059887771    17.169841     16.60332    4733.2144 
   30200   0.95652366       0.0302    10.284088   -1.8672763   -855.94293  0.055267253    17.171508    16.603479    4733.7645 
   30300    2.6627283       0.0303    10.339343   -1.8168146   -856.02739   0.15385054    17.173175    16.603676    4734.3365 
   30400    5.1695726       0.0304    10.407296   -1.7405954   -856.15805   0.29869421    17.174842    16.603911    4734.9296 
   30500    8.4002355       0.0305    10.487056   -1.6398449   -856.33043    0.4853596    17.176509     16.60418    4735.5428 
   30600    12.256097       0.0306    10.577423   -1.5162361   -856.53875   0.70814851    17.178176    16.604482    4736.1747 
   30700    16.619696       0.0307    10.676921   -1.3718524   -856.77619   0.96027412    17.179843    16.604814    4736.8237 
   30800    21.358188       0.0308    10.783819   -1.2091669     -857.035    1.2340608     17.18151    16.605172    4737.4879 
   30900     26.32725       0.0309    10.896224   -1.0309106    -857.3068    1.5211697    17.183177    16.605554    4738.1652 
   31000    31.375257        0.031    11.012085  -0.84006761    -857.5828    1.8128399    17.184844    16.605954    4738.8534 
   31100    36.347649       0.0311    11.129249  -0.63982942   -857.85404    2.1001412    17.186511     16.60637    4739.5502 
   31200    41.091377       0.0312    11.245548  -0.43345025   -858.11166    2.3742304    17.188178    16.606796    4740.2531 
   31300    45.459271       0.0313    11.358851  -0.22419923   -858.34715    2.6266042    17.189845    16.607228    4740.9596 
   31400    49.314323       0.0314    11.467074 -0.015341134   -858.55261    2.8493463    17.191512    16.607662    4741.6672 
   31500    52.533727       0.0315    11.568276    0.1900533   -858.72098    3.0353612    17.193179    16.608094    4742.3734 
   31600    55.012598       0.0316    11.660703   0.38906514   -858.84622    3.1785886    17.194846    16.608518    4743.0758 
   31700    56.667341       0.0317    11.742835   0.57905788   -858.92355    3.2741984    17.196513    16.608932    4743.7721 
   31800    57.438544       0.0318    11.813412   0.75775095    -858.9496     3.318758     17.19818    16.609331      4744.46 
   31900    57.293339       0.0319    11.871513   0.92319814   -858.92252    3.3103682    17.199847    16.609712    4745.1375 
   32000    56.227083        0.032    11.916567    1.0739253    -858.8421    3.2487606    17.201514    16.610071    4745.8026 
   32100    54.264412       0.0321    11.948373    1.2088649   -858.70985    3.1353589    17.203181    16.610406    4746.4538 
   32200    51.459372       0.0322    11.967173    1.3274727   -858.52894    2.9732857    17.204848    16.610714    4747.0895 
   32300      47.8947       0.0323    11.973599     1.429611   -858.30422    2.7673215    17.206515    16.610992    4747.7083 
   32400    43.680102       0.0324    11.968696    1.5156414   -858.04206    2.5238051    17.208182    16.611238    4748.3092 
   32500    38.949529       0.0325     11.95395     1.586341   -857.75027    2.2504759    17.209849    16.611451    4748.8912 
   32600    33.857354       0.0326    11.931177    1.6428162    -857.4378    1.9562537    17.211516    16.611631    4749.4536 
   32700    28.573636       0.0327    11.902533    1.6865531   -857.11449    1.6509642    17.213183    16.611774    4749.9958 
   32800    23.278446       0.0328     11.87043    1.7192024   -856.79077    1.3450119     17.21485    16.611882    4750.5174 
   32900    18.155499       0.0329    11.837506    1.7425722   -856.47727    1.0490117    17.216517    16.611953    4751.0181 
   33000    13.385326        0.033     11.80644    1.7585304   -856.18441   0.77339456    17.218184    16.611987    4751.4976 
   33100    9.1383484       0.0331    11.779885    1.7689309   -855.92202   0.52800723    17.219851    16.611984    4751.9559 
   33200    5.5680118       0.0332     11.76026    1.7754645   -855.69895   0.32171574    17.221518    16.611944    4752.3928 
   33300    2.8044815       0.0333    11.749748    1.7796676   -855.52269   0.16204093    17.223185    16.611866    4752.8084 
   33400     0.949127       0.0334     11.75014    1.7827993   -855.39907   0.05483988    17.224852    16.611751    4753.2025 
   33500  0.070155441       0.0335    11.762746     1.785766     -855.332 0.0040535312    17.226519    16.611599    4753.5753 
   33600   0.19965255       0.0336    11.788351    1.7890791   -855.32328  0.011535781    17.228185    16.611409    4753.9266 
   33700     1.332205       0.0337    11.827182    1.7928367   -855.37258  0.076973853    17.229852    16.611182    4754.2565 
   33800     3.425184       0.0338    11.878899    1.7967192   -855.47738   0.19790468    17.231519    16.610917     4754.565 
   33900     6.400671       0.0339    11.942612          1.8   -855.63315    0.3698262    17.233186    16.610615     4754.852 
   34000    10.148909        0.034    12.016916    1.8015712   -855.83352   0.58639673    17.234853    16.610275    4755.1175 
   34100    14.533079       0.0341    12.099949    1.8000003   -856.07055   0.83971088     17.23652    16.609898    4755.3616 
   34200    19.395071       0.0342    12.189525    1.7936435   -856.33508    1.1206334    17.238187    16.609484    4755.5844 
   34300    24.561989       0.0343    12.283197    1.7806949   -856.61711    1.4191741    17.239854    16.609033    4755.7859 
   34400    29.853019       0.0344    12.378328    1.7592331   -856.90617    1.7248861    17.241521    16.608545    4755.9665 
   34500    35.086244       0.0345    12.472305    1.7273954   -857.19173    2.0272581    17.243188    16.608022    4756.1264 
   34600    40.085306       0.0346    12.562549    1.6834046   -857.46359    2.3161003    17.244855    16.607463    4756.2662 
   34700    44.685432       0.0347     12.64675    1.6256677   -857.71224    2.5818923    17.246522    16.606871    4756.3865 
   34800     48.73877       0.0348    12.722866    1.5528193   -857.92911    2.8160913    17.248189    16.606245    4756.4881 
   34900    52.118817       0.0349    12.789166    1.4638621   -858.10689     3.011388    17.249856     16.60559     4756.572 
   35000    54.723762        0.035     12.84433    1.3581577    -858.2397    3.1618998    17.251523    16.604905    4756.6395 
   35100    56.478926       0.0351    12.887432    1.2355358   -858.32321     3.263312     17.25319    16.604194    4756.6918 
   35200    57.338126       0.0352    12.917948     1.096247   -858.35476    3.3129559    17.254857     16.60346    4756.7307 
   35300    57.284115       0.0353    12.935753   0.94104001   -858.33335    3.3098352    17.256524    16.602706    4756.7579 
   35400    56.328167       0.0354    12.941133   0.77112354   -858.25962    3.2546012    17.258191    16.601934    4756.7755 
   35500    54.508893       0.0355    12.934736   0.58813538   -858.13582    3.1494849    17.259858     16.60115    4756.7855 
   35600     51.89039       0.0356     12.91753   0.39414607   -857.96564    2.9981896    17.261525    16.600357    4756.7902 
   35700    48.559756       0.0357    12.890775   0.19156491   -857.75413    2.8057479    17.263192    16.599558    4756.7921 
   35800    44.624169       0.0358    12.856001 -0.016837675    -857.5075    2.5783526    17.264859     16.59876    4756.7936 
   35900    40.207506       0.0359     12.81493   -0.2281082   -857.23291     2.323161    17.266526    16.597965    4756.7973 
   36000    35.446627        0.036    12.769446  -0.43904706    -856.9383    2.0480807    17.268193    16.597178    4756.8057 
   36100    30.487373       0.0361     12.72153  -0.64637224   -856.63212    1.7615386     17.26986    16.596405    4756.8213 
   36200    25.480415       0.0362     12.67321  -0.84679114   -856.32309    1.4722402    17.271527    16.595648    4756.8467 
   36300    20.576958       0.0363    12.626556    -1.036984      -856.02    1.1889219    17.273194    16.594912    4756.8841 
   36400    15.924476       0.0364    12.583542   -1.2138156   -855.73138   0.92010484    17.274861    16.594202    4756.9358 
   36500    11.662493       0.0365    12.546087   -1.3742985   -855.46533    0.6738505    17.276528     16.59352    4757.0037 
   36600    7.9186287       0.0366    12.515926   -1.5157058   -855.22926   0.45753271    17.278195    16.592869    4757.0897 
   36700     4.804917       0.0367    12.494608   -1.6356209   -855.02965   0.27762467    17.279862    16.592253    4757.1953 
   36800    2.4145498       0.0368    12.483462   -1.7319835   -854.87191   0.13951096    17.281529    16.591673    4757.3218 
   36900   0.81917182       0.0369    12.483533   -1.8031699    -854.7602  0.047331162    17.283196    16.591132    4757.4703 
   37000  0.066777382        0.037    12.495563   -1.8479954   -854.69729 0.0038583493    17.284863     16.59063    4757.6412 
   37100   0.18029608       0.0371    12.519979   -1.8657443   -854.68449  0.010417378     17.28653    16.590168    4757.8351 
   37200    1.1569172       0.0372    12.556873   -1.8561918   -854.72165  0.066845846    17.288197    16.589746    4758.0519 
   37300    2.9681748       0.0373    12.605999   -1.8196088   -854.80708   0.17149902    17.289864    16.589364    4758.2913 
   37400    5.5607911       0.0374    12.666784   -1.7567548    -854.9377   0.32129853    17.291531     16.58902    4758.5527 
   37500     8.858247       0.0375    12.738344   -1.6688555   -855.10905   0.51182317    17.293198    16.588713    4758.8352 
   37600    12.763026       0.0376    12.819508   -1.5575689   -855.31546   0.73743852    17.294864     16.58844    4759.1374 
   37700     17.15944       0.0377    12.908823   -1.4249816   -855.55022   0.99146017    17.296531    16.588199     4759.458 
   37800     21.91698       0.0378    13.004634   -1.2735266   -855.80575    1.2663474    17.298198    16.587987    4759.7951 
   37900     26.89407       0.0379    13.105114   -1.1059394   -856.07385    1.5539201    17.299865    16.587801    4760.1468 
   38000    31.942063        0.038    13.208275  -0.92521004   -856.34589    1.8455895    17.301532    16.587636    4760.5109 
   38100    36.909477       0.0381    13.312105  -0.73445497   -856.61311    2.1326032    17.303199    16.587489    4760.8853 
   38200    41.646255       0.0382    13.414509  -0.53696699   -856.86684    2.4062909    17.304866    16.587356    4761.2675 
   38300     46.00804       0.0383    13.513441  -0.33601281   -857.09872    2.6583117    17.306533    16.587232    4761.6552 
   38400    49.860277       0.0384    13.606914  -0.13481692     -857.301    2.8808911      17.3082    16.587114    4762.0458 
   38500     53.08216       0.0385    13.693083  0.063473276   -857.46671    3.0670492    17.309867    16.586996    4762.4369 
   38600    55.570267       0.0386    13.770266   0.25596724    -857.5899    3.2108103    17.311534    16.586876    4762.8262 
   38700     57.24185       0.0387    13.836981   0.43997916   -857.66583    3.3073931    17.313201    16.586748    4763.2114 
   38800    58.037657       0.0388    13.892041    0.6131628    -857.6911    3.3533743    17.314868    16.586609    4763.5904 
   38900    57.924278       0.0389    13.934546   0.77355367   -857.66383    3.3468233    17.316535    16.586456     4763.961 
   39000    56.895868        0.039     13.96393   0.91957486   -857.58374    3.2874026    17.318202    16.586285    4764.3215 
   39100    54.975135       0.0391    13.980019    1.0501212   -857.45216     3.176424    17.319869    16.586094    4764.6702 
   39200    52.213607       0.0392    13.983021    1.1645006   -857.27214    3.0168649    17.321536     16.58588    4765.0056 
   39300    48.690973       0.0393    13.973557    1.2625403   -857.04831    2.8133296    17.323203     16.58564    4765.3265 
   39400     44.51349       0.0394    13.952686    1.3444499   -856.78684    2.5719576     17.32487    16.585373    4765.6318 
   39500    39.811369       0.0395    13.921854     1.410875   -856.49529    2.3002724    17.326537    16.585078    4765.9205 
   39600    34.735157       0.0396    13.882968      1.46281   -856.18239    2.0069726    17.328204    16.584753    4766.1921 
   39700    29.451133       0.0397    13.838327    1.5014694   -855.85774    1.7016654    17.329871    16.584396    4766.4459 
   39800    24.135958       0.0398    13.790496    1.5283687   -855.53156    1.3945584    17.331538    16.584009    4766.6817 
   39900    18.970647       0.0399    13.742176    1.5451604   -855.21431    1.0961104    17.333205     16.58359    4766.8991 
   40000    14.134048         0.04    13.696134    1.5535795   -854.91631    0.8166552    17.334872    16.583138    4767.0981 
   40100    9.7960667       0.0401     13.65508    1.5553639   -854.64735   0.56600973    17.336539    16.582655    4767.2785 
   40200    6.1110214       0.0402     13.62159    1.5522065   -854.41633   0.35309044    17.338206    16.582139    4767.4405 
   40300    3.2113439       0.0403    13.597915    1.5455691   -854.23087   0.18554916    17.339873    16.581592    4767.5841 
   40400    1.2020636       0.0404    13.585956    1.5366863     -854.097  0.069454374     17.34154    16.581013    4767.7095 
   40500   0.15632572       0.0405     13.58717    1.5264922    -854.0189 0.0090323883    17.343207    16.580403    4767.8167 
   40600   0.11221383       0.0406    13.602488    1.5155548   -853.99874 0.0064836348    17.344874    16.579761     4767.906 
   40700    1.0710773       0.0407    13.632277    1.5040494   -854.03655   0.06188608    17.346541    16.579089    4767.9775 
   40800    2.9974637       0.0408    13.676331    1.4917503   -854.13024   0.17319131    17.348208    16.578386    4768.0314 
   40900    5.8206599       0.0409    13.733874    1.4780406   -854.27569   0.33631356    17.349875    16.577653    4768.0679 
   41000    9.4377521        0.041    13.803596    1.4619391   -854.46691   0.54530657    17.351542     16.57689    4768.0871 
   41100    13.718011       0.0411    13.883732    1.4421675    -854.6963   0.79261686    17.353209    16.576098    4768.0893 
   41200     18.50833       0.0412    13.972154    1.4172107     -854.955    1.0693981    17.354876    16.575276    4768.0749 
   41300    23.639484       0.0413    14.066395     1.385336   -855.23318    1.3658725    17.356543    16.574427    4768.0441 
   41400    28.932774       0.0414    14.163852    1.3447857   -855.52051     1.671715     17.35821     16.57355    4767.9975 
   41500    34.206812       0.0415    14.261833    1.2937948   -855.80647    1.9764451    17.359877    16.572647    4767.9355 
   41600    39.284072       0.0416    14.357686    1.2306597   -856.08078    2.2698056    17.361543    16.571718    4767.8591 
   41700    43.997024       0.0417    14.448883    1.1538887   -856.33374    2.5421166     17.36321    16.570766    4767.7689 
   41800    48.193528       0.0418    14.533143     1.062247   -856.55655    2.7845876    17.364877    16.569792    4767.6661 
   41900    51.741483       0.0419    14.608484   0.95476814   -856.74156    2.9895859    17.366544    16.568798    4767.5519 
   42000    54.532579        0.042    14.673389   0.83088213   -856.88249    3.1508534    17.368211    16.567787    4767.4277 
   42100     56.48503       0.0421    14.726773   0.69035871   -856.97462    3.2636647    17.369878    16.566762    4767.2952 
   42200     57.54534       0.0422    14.767941   0.53346324   -857.01484    3.3249286    17.371545    16.565725    4767.1561 
   42300    57.689025       0.0423    14.796626   0.36087903   -857.00173    3.3332306    17.373212    16.564681    4767.0125 
   42400    56.920502       0.0424    14.812968   0.17381357   -856.93555    3.2888259    17.374879    16.563633    4766.8665 
   42500    55.272131       0.0425    14.817447 -0.026126406   -856.81818    3.1935842    17.376546    16.562585    4766.7206 
   42600    52.802569       0.0426    14.810873  -0.23687438   -856.65302    3.0508947    17.378213    16.561541    4766.5772 
   42700    49.594451       0.0427    14.794373  -0.45600433   -856.44486    2.8655319     17.37988    16.560507     4766.439 
   42800    45.751549       0.0428    14.769335   -0.6807409   -856.19972    2.6434918    17.381547    16.559486    4766.3086 
   42900    41.395475       0.0429    14.737341  -0.90804967   -855.92468     2.391801    17.383214    16.558484    4766.1887 
   43000    36.661962        0.043    14.700132   -1.1347139    -855.6276     2.118302    17.384881    16.557505    4766.0821 
   43100    31.696871       0.0431    14.659592   -1.3573341   -855.31697    1.8314226    17.386548    16.556554    4765.9916 
   43200    26.651972       0.0432    14.617646   -1.5725376    -855.0016    1.5399319    17.388215    16.555636    4765.9198 
   43300    21.680558       0.0433    14.576273   -1.7769126   -854.69041    1.2526871    17.389882    16.554754    4765.8691 
   43400    16.933099       0.0434    14.537377   -1.9671779   -854.39215   0.97838233    17.391549    16.553914     4765.842 
   43500    12.552865       0.0435    14.502819   -2.1402274   -854.11516   0.72529554    17.393216    16.553118    4765.8406 
   43600    8.6718372       0.0436    14.474291   -2.2932221    -853.8671   0.50105255    17.394883     16.55237    4765.8669 
   43700    5.4068547       0.0437    14.453343   -2.4235982   -853.65478    0.3124042     17.39655    16.551674    4765.9225 
   43800    2.8562004       0.0438    14.441305   -2.5291701   -853.48391   0.16502922    17.398217    16.551031    4766.0089 
   43900    1.0967181       0.0439    14.439241   -2.6081855   -853.35897  0.063367586    17.399884    16.550443    4766.1271 
   44000   0.18153743        0.044    14.447939   -2.6593447   -853.28304  0.010489103    17.401551    16.549912    4766.2779 
   44100   0.13850326       0.0441    14.467884   -2.6818287   -853.25773 0.0080026191    17.403218    16.549439    4766.4616 
   44200   0.96935775       0.0442    14.499242   -2.6753187   -853.28315  0.056008798    17.404885    16.549023    4766.6784 
   44300    2.6497025       0.0443    14.541856   -2.6400077   -853.35787   0.15309791    17.406552    16.548663    4766.9279 
   44400    5.1297401       0.0444    14.595246   -2.5765924   -853.47898   0.29639271    17.408219     16.54836    4767.2095 
   44500    8.3357686       0.0445    14.658626   -2.4862539   -853.64218   0.48163475    17.409886     16.54811    4767.5221 
   44600     12.17238       0.0446    14.730932   -2.3706315   -853.84193    0.7033114    17.411553    16.547912    4767.8646 
   44700    16.525281       0.0447    14.810845   -2.2317905   -854.07157   0.95481891     17.41322    16.547763    4768.2353 
   44800    21.264626       0.0448    14.896807   -2.0722005   -854.32354    1.2286549    17.414887     16.54766    4768.6323 
   44900    26.248809       0.0449    14.987111   -1.8946234   -854.58963    1.5166374    17.416554    16.547599    4769.0536 
   45000    31.328516        0.045    15.079894   -1.7020691   -854.86114    1.8101393    17.418221    16.547576    4769.4969 
   45100    36.351005       0.0451    15.173203   -1.4977663   -855.12923     2.100335    17.419888    16.547587    4769.9597 
   45200     41.16447       0.0452    15.265055   -1.2850675   -855.38509    2.3784536    17.421555    16.547628    4770.4394 
   45300    45.622349       0.0453    15.353488   -1.0673259   -855.62023    2.6360267    17.423222    16.547693    4770.9335 
   45400    49.587533       0.0454    15.436584  -0.84790685   -855.82671    2.8651322    17.424889    16.547778    4771.4392 
   45500     52.93639       0.0455     15.51254  -0.63003964   -855.99739    3.0586268    17.426556    16.547879    4771.9539 
   45600    55.562427       0.0456    15.579691  -0.41676393   -856.12613    3.2103573    17.428222    16.547991    4772.4749 
   45700    57.379654       0.0457    15.636601  -0.21090482   -856.20798    3.3153554    17.429889    16.548109    4772.9996 
   45800    58.325446       0.0458    15.682065 -0.014910517   -856.23934    3.3700026    17.431556     16.54823    4773.5256 
   45900    58.362916       0.0459    15.715147   0.16907223   -856.21813    3.3721675    17.433223    16.548349    4774.0506 
   46000    57.482605        0.046    15.735256    0.3393576   -856.14383    3.3213038     17.43489    16.548462    4774.5724 
   46100    55.703565       0.0461    15.742161   0.49466259    -856.0176    3.2185122    17.436557    16.548566     4775.089 
   46200    53.073575       0.0462       15.736   0.63419241   -855.84223    3.0665532    17.438224    16.548658    4775.5986 
   46300    49.668458       0.0463    15.717377   0.75755098   -855.62215     2.869808    17.439891    16.548735    4776.0996 
   46400    45.590411       0.0464    15.687455   0.86472294   -855.36332    2.6341813    17.441558    16.548795    4776.5907 
   46500    40.965488       0.0465    15.647843    0.9561016   -855.07304    2.3669566    17.443225    16.548835    4777.0706 
   46600    35.940176       0.0466    15.600519    1.0323848   -854.75981    2.0765977    17.444892    16.548855    4777.5383 
   46700      30.6771       0.0467    15.547817    1.0946575   -854.43306    1.7725009    17.446559    16.548851    4777.9929 
   46800    25.349919       0.0468    15.492297    1.1442187   -854.10282    1.4647002    17.448226    16.548825    4778.4339 
   46900    20.137511       0.0469    15.436671    1.1825465   -853.77944     1.163531    17.449893    16.548773    4778.8607 
   47000    15.217689        0.047    15.383755    1.2112746   -853.47319    0.8792672     17.45156    16.548696    4779.2729 
   47100     10.76065       0.0471    15.336339    1.2320142   -853.19388   0.62174265    17.453227    16.548594    4779.6702 
   47200    6.9224482       0.0472    15.297043    1.2462991   -852.95053   0.39997411    17.454894    16.548465    4780.0524 
   47300    3.8388597       0.0473    15.268228    1.2555884   -852.75094   0.22180657    17.456561     16.54831    4780.4194 
   47400    1.6198354       0.0474    15.251847    1.2611314   -852.60143  0.093592933    17.458228    16.548129    4780.7712 
   47500   0.34491889       0.0475    15.249391    1.2638899   -852.50657  0.019929167    17.459895    16.547921    4781.1076 
   47600  0.059884451       0.0476    15.261861    1.2645076   -852.46897 0.0034600808    17.461562    16.547687    4781.4288 
   47700   0.77477554       0.0477    15.289707    1.2632623   -852.48916  0.044765977    17.463229    16.547427    4781.7347 
   47800    2.4634762       0.0478    15.332827    1.2600444   -852.56559   0.14233789    17.464896     16.54714    4782.0253 
   47900    5.0648466       0.0479    15.390573    1.2543631   -852.69469   0.29264321    17.466563    16.546827    4782.3008 
   48000    8.4853406        0.048    15.461787     1.245382   -852.87102   0.49027691     17.46823    16.546488    4782.5612 
   48100    12.602951       0.0481    15.544834    1.2319574    -853.0875   0.72818949    17.469897    16.546123    4782.8068 
   48200    17.272273       0.0482    15.637646    1.2126896   -853.33569   0.99797959    17.471564    16.545733    4783.0376 
   48300     22.33037       0.0483    15.737828     1.186031   -853.60615    1.2902328    17.473231    16.545318    4783.2541 
   48400    27.603085       0.0484    15.842752     1.150393   -853.88879    1.5948865    17.474898    16.544879    4783.4566 
   48500    32.911639       0.0485     15.94962    1.1040962   -854.17327    1.9016109    17.476565    16.544417    4783.6457 
   48600    38.079034       0.0486    16.055738    1.0456068   -854.44935    2.2001794    17.478232    16.543933     4783.822 
   48700    42.936208       0.0487    16.158465   0.97349147   -854.70724    2.4808234    17.479899    16.543428    4783.9863 
   48800    47.327456       0.0488    16.255406   0.88654871   -854.93795    2.7345466    17.481566    16.542904    4784.1396 
   48900    51.115237       0.0489    16.344414   0.78389848   -855.13352    2.9534019    17.483233    16.542364    4784.2831 
   49000    54.184041        0.049    16.423671   0.66496391   -855.28728    3.1307151      17.4849    16.541809    4784.4181 
   49100    56.443357       0.0491    16.491773    0.5296037     -855.394    3.2612568    17.486567    16.541242    4784.5463 
   49200    57.829776       0.0492    16.547754   0.37805315   -855.45003    3.3413631    17.488234    16.540666    4784.6694 
   49300    58.308249       0.0493    16.591173   0.21093194   -855.45335    3.3690089    17.489901    16.540085    4784.7893 
   49400    57.872362       0.0494    16.622021  0.029313002   -855.40361    3.3438237    17.491568    16.539502    4784.9082 
   49500    56.543723       0.0495    16.640659  -0.16529885   -855.30207    3.2670559    17.493235    16.538922    4785.0285 
   49600    54.370649       0.0496    16.647781   -0.3709506   -855.15155    3.1414972    17.494901    16.538349    4785.1525 
   49700    51.426127       0.0497     16.64438  -0.58533379    -854.9563    2.9713649    17.496568    16.537786    4785.2828 
   49800    47.805237       0.0498    16.631715  -0.80574014   -854.72185    2.7621524    17.498235    16.537239    4785.4222 
   49900    43.622039       0.0499    16.611245   -1.0292325   -854.45482    2.5204502    17.499902    16.536712    4785.5732 
   50000    39.006114         0.05    16.584597   -1.2526029   -854.16275    2.2537454    17.501569    16.536211    4785.7387 
   50100    34.098668       0.0501    16.553546   -1.4725276   -853.85384    1.9701966    17.503236    16.535739    4785.9214 
   50200    29.048463       0.0502    16.519939   -1.6855879   -853.53674    1.6783994    17.504903    16.535301    4786.1238 
   50300    24.007559       0.0503    16.485646   -1.8883608   -853.22028    1.3871396     17.50657    16.534902    4786.3485 
   50400    19.126926       0.0504    16.452544    -2.077525   -852.91324    1.1051401    17.508237    16.534545    4786.5979 
   50500    14.552179       0.0505    16.422421   -2.2498978   -852.62407   0.84081449    17.509904    16.534236    4786.8742 
   50600     10.41938       0.0506     16.39698   -2.4025005   -852.36069   0.60202433    17.511571    16.533975    4787.1793 
   50700    6.8511175       0.0507    16.377777   -2.5326643   -852.13019   0.39585267    17.513238    16.533768    4787.5149 
   50800    3.9529654       0.0508    16.366159   -2.6380887   -851.93871   0.22839951    17.514905    16.533616    4787.8825 
   50900    1.8104031       0.0509    16.363265    -2.716839   -851.79119    0.1046038    17.516572    16.533521    4788.2831 
   51000   0.48632639        0.051    16.369981   -2.7674253   -851.69127  0.028099591    17.518239    16.533484    4788.7176 
   51100  0.019221383       0.0511    16.386901   -2.7888423   -851.64114 0.0011105978    17.519906    16.533507    4789.1862 
   51200   0.42206029       0.0512    16.414326   -2.7805781   -851.64154  0.024386342    17.521573    16.533588    4789.6891 
   51300    1.6819627       0.0513    16.452254   -2.7426251   -851.69168  0.097182603     17.52324    16.533728    4790.2259 
   51400    3.7606324       0.0514    16.500383   -2.6754801   -851.78929   0.21728665    17.524907    16.533925    4790.7959 
   51500     6.595552       0.0515    16.558114   -2.5801316    -851.9307   0.38108628    17.526574    16.534178    4791.3981 
   51600    10.101892       0.0516    16.624573   -2.4580398   -852.11093   0.58368008    17.528241    16.534484    4792.0312 
   51700    14.175051       0.0517     16.69862    -2.311115   -852.32387   0.81902431    17.529908     16.53484    4792.6934 
   51800     18.69376       0.0518    16.778904   -2.1416333   -852.56243    1.0801121    17.531575    16.535243    4793.3827 
   51900    23.523649       0.0519    16.863905   -1.9522123   -852.81879    1.3591796    17.533242    16.535689     4794.097 
   52000    28.521124        0.052    16.951916   -1.7457987   -853.08458    1.6479302    17.534909    16.536174    4794.8338 
   52100    33.537506       0.0521    17.041156   -1.5255203   -853.35115    1.9377731    17.536576    16.536692    4795.5903 
   52200    38.423227       0.0522    17.129764   -1.2946437   -853.60982    2.2200666    17.538243     16.53724    4796.3639 
   52300    43.032095       0.0523     17.21588   -1.0565452   -853.85209    2.4863637     17.53991    16.537812    4797.1516 
   52400    47.225394       0.0524    17.297669  -0.81458723   -854.06993    2.7286495    17.541577    16.538403    4797.9504 
   52500    50.875847       0.0525     17.37338  -0.57203392   -854.25599    2.9395701    17.543244    16.539007    4798.7573 
   52600    53.871284       0.0526    17.441349  -0.33205963    -854.4038    3.1126443    17.544911    16.539621    4799.5693 
   52700     56.11795       0.0527    17.500096 -0.097558756   -854.50795     3.242455    17.546578    16.540238    4800.3835 
   52800    57.543452       0.0528    17.548355   0.12879485    -854.5643    3.3248195    17.548245    16.540854    4801.1971 
   52900    58.099125       0.0529    17.585069   0.34470348   -854.57008    3.3569259    17.549912    16.541464    4802.0073 
   53000    57.761933        0.053    17.609464   0.54819922   -854.52403    3.3374432    17.551579    16.542063    4802.8115 
   53100    56.535661       0.0531    17.621101    0.7377787   -854.42641    3.2665901    17.553246    16.542648    4803.6074 
   53200    54.451391       0.0532    17.619924   0.91228502   -854.27909    3.1461624    17.554913    16.543215    4804.3926 
   53300    51.567045       0.0533    17.606382    1.0709563   -854.08549     2.979507     17.55658    16.543759    4805.1651 
   53400    47.966294       0.0534     17.58142    1.2133965    -853.8505    2.7714582    17.558247    16.544279     4805.923 
   53500    43.756641       0.0535    17.546327    1.3396164   -853.58039    2.5282274    17.559913     16.54477    4806.6648 
   53600    39.066678       0.0536    17.502759    1.4499792   -853.28264    2.2572447     17.56158    16.545231    4807.3889 
   53700    34.042568       0.0537    17.452812     1.545169   -852.96576    1.9669552    17.563247    16.545659    4808.0941 
   53800    28.843602       0.0538    17.399058     1.626081   -852.63897    1.6665627    17.564914    16.546053    4808.7793 
   53900    23.637359       0.0539    17.344102     1.693833   -852.31199    1.3657497    17.566581    16.546411    4809.4437 
   54000    18.594204        0.054    17.290571    1.7497509   -851.99468    1.0743598    17.568248    16.546731    4810.0865 
   54100    13.881505       0.0541    17.241089    1.7953336   -851.69671   0.80206343    17.569915    16.547014    4810.7071 
   54200    9.6575979       0.0542    17.198098    1.8320482   -851.42724    0.5580091    17.571582    16.547257    4811.3049 
   54300    6.0659286       0.0543    17.163966    1.8613693   -851.19453   0.35048502    17.573249     16.54746    4811.8797 
   54400    3.2295228       0.0544     17.14064    1.8846371   -851.00567   0.18659952    17.574916    16.547623    4812.4311 
   54500    1.2461198       0.0545    17.129639    1.9029633    -850.8663  0.071999909    17.576583    16.547746    4812.9588 
   54600   0.18424592       0.0546    17.132103    1.9172001   -850.78033  0.010645598     17.57825    16.547828    4813.4628 
   54700  0.080417652       0.0547    17.148737     1.927883   -850.74984 0.0046464744    17.579917    16.547868    4813.9429 
   54800   0.93765394       0.0548     17.17978    1.9351967   -850.77498  0.054176974    17.581584    16.547867    4814.3989 
   54900    2.7253886       0.0549    17.224999    1.9389641   -850.85394     0.157471    17.583251    16.547825    4814.8309 
   55000    5.3807858        0.055    17.283699    1.9386538   -850.98306   0.31089796    17.584918    16.547742    4815.2389 
   55100    8.8113761       0.0551    17.354755    1.9334165   -851.15696   0.50911501    17.586585    16.547618    4815.6229 
   55200    12.898841       0.0552    17.436673    1.9221355   -851.36877   0.74528583    17.588252    16.547452     4815.983 
   55300    17.503772       0.0553    17.527592    1.9034478   -851.61041    1.0113554    17.589919    16.547246    4816.3195 
   55400    22.471112       0.0554    17.625374    1.8758532   -851.87289    1.2983648    17.591586       16.547    4816.6327 
   55500     27.63596       0.0555    17.727732     1.837843   -852.14667     1.596786    17.593253    16.546715    4816.9231 
   55600    32.829569       0.0556    17.832182    1.7878577   -852.42197     1.896869     17.59492    16.546391    4817.1911 
   55700    37.885097       0.0557    17.936224     1.724498   -852.68913    2.1889738    17.596587    16.546031    4817.4375 
   55800      42.6431       0.0558    18.037214    1.6465463   -852.93893    2.4638878    17.598254    16.545635    4817.6633 
   55900    46.956368       0.0559    18.132698    1.5530558   -853.16285    2.7131053    17.599921    16.545205    4817.8695 
   56000    50.694235        0.056    18.220447    1.4433643   -853.35333    2.9290766    17.601588    16.544744    4818.0574 
   56100      53.7462       0.0561    18.298694    1.3170808   -853.50397     3.105417    17.603255    16.544255    4818.2285 
   56200    56.024689       0.0562    18.366102    1.1741406    -853.6097    3.2370665    17.604922    16.543739    4818.3845 
   56300    57.467064       0.0563    18.421754    1.0148927   -853.66692    3.3204059    17.606589    16.543201    4818.5272 
   56400    58.036734       0.0564    18.464986   0.84004394   -853.67349     3.353321    17.608256    16.542644    4818.6589 
   56500    57.723637       0.0565    18.495663   0.65074237   -853.62883    3.3352304    17.609923    16.542072    4818.7818 
[...]
  107600    49.102367       0.1076    26.121232  -0.70997805   -836.50355    2.8370996    18.461747     16.42055    4977.9235 
  107700    44.594123       0.1077    26.069379  -0.99290243   -836.20421    2.5766165    18.463414    16.419869    4977.9599 
  107800    39.693964       0.1078    26.016686   -1.2730001   -835.88208    2.2934888    18.465081    16.419214    4978.0121 
  107900    34.543569       0.1079     25.96409   -1.5464687   -835.54542    1.9959027    18.466748    16.418591    4978.0836 
  108000    29.291257        0.108    25.912607   -1.8094354   -835.20285    1.6924279    18.468415    16.418006    4978.1781 
  108100    24.087956       0.1081    25.863268   -2.0581315   -834.86318    1.3917849    18.470082    16.417464    4978.2989 
  108200    19.083067       0.1082     25.81716    -2.288842   -834.53511     1.102606    18.471749    16.416971    4978.4493 
  108300    14.420324       0.1083    25.775336   -2.4981151   -834.22701     0.833196    18.473416    16.416532    4978.6321 
  108400    10.233724       0.1084    25.738854   -2.6827511    -833.9467   0.59129723    18.475083     16.41615    4978.8499 
  108500    6.6437263       0.1085    25.708685    -2.839888   -833.70118   0.38386976     18.47675     16.41583     4979.105 
  108600    3.7537493       0.1086    25.685706   -2.9670633    -833.4965   0.21688895    18.478417    16.415575    4979.3993 
  108700    1.6471177       0.1087    25.670679   -3.0622525   -833.33748  0.095169282    18.480084    16.415386    4979.7341 
  108800   0.38459381       0.1088    25.664195   -3.1239288   -833.22767  0.022221555    18.481751    16.415266    4980.1105 
  108900 0.0025590518       0.1089    25.666655    -3.151071   -833.16915 0.00014786018    18.483418    16.415216     4980.529 
  109000   0.51192218        0.109    25.678263   -3.1431849   -833.16253  0.029578497    18.485085    16.415235    4980.9898 
  109100    1.8978007       0.1091    25.699014   -3.1003186   -833.20691   0.10965357    18.486752    16.415323    4981.4924 
  109200    4.1199873       0.1092    25.728699   -3.0230616   -833.29992   0.23804992    18.488419    16.415479     4982.036 
  109300    7.1141802       0.1093    25.766918   -2.9125292   -833.43776   0.41105224    18.490085    16.415699    4982.6193 
  109400    10.793926       0.1094    25.813102   -2.7703399   -833.61535    0.6236653    18.491752    16.415983    4983.2405 
  109500    15.053189       0.1095    25.866527   -2.5986094   -833.82647    0.8697625    18.493419    16.416325    4983.8975 
  109600    19.769477       0.1096    25.926367   -2.3998933   -834.06396    1.1422662    18.495086    16.416722    4984.5879 
  109700    24.807392       0.1097    25.991736   -2.1771331   -834.31988    1.4333534    18.496753    16.417169    4985.3087 
  109800    30.022453       0.1098    26.061678   -1.9335951   -834.58581    1.7346759     18.49842    16.417661    4986.0568 
  109900    35.265156       0.1099    26.135243   -1.6728106   -834.85301    2.0375955    18.500087    16.418192    4986.8287 
  110000    40.385104         0.11    26.211487   -1.3985328   -835.11272    2.3334224    18.501754    16.418757    4987.6209 
  110100    45.235077       0.1101    26.289491   -1.1145756   -835.35639    2.6136504    18.503421    16.419348    4988.4296 
  110200    49.675048       0.1102    26.368381  -0.82482792   -835.57587    2.8701887    18.505088     16.41996    4989.2509 
  110300    53.575964       0.1103    26.447335  -0.53308952    -835.7637    3.0955809    18.506755    16.420586    4990.0809 
  110400    56.823266       0.1104    26.525561  -0.24304164   -835.91323    3.2832077    18.508422     16.42122    4990.9157 
  110500    59.320116       0.1105    26.602333  0.041861881    -836.0189    3.4274738    18.510089    16.421855    4991.7514 
  110600     60.99018       0.1106    26.676953   0.31845736   -836.07633     3.523969    18.511756    16.422486    4992.5843 
  110700    61.780001       0.1107    26.748764   0.58391571   -836.08246    3.5696043    18.513423    16.423105    4993.4106 
  110800    61.660849       0.1108    26.817171   0.83582823    -836.0357    3.5627198     18.51509    16.423708    4994.2269 
  110900    60.629982       0.1109    26.881615    1.0722085   -835.93595     3.503157    18.516757    16.424289      4995.03 
  111000    58.711264        0.111    26.941592    1.2915216   -835.78466    3.3922949    18.518424    16.424843    4995.8167 
  111100    55.955107       0.1111    26.996689    1.4927126   -835.58483    3.2330461    18.520091    16.425366    4996.5842 
  111200    52.437638       0.1112    27.046584    1.6751635   -835.34093    3.0298092    18.521758    16.425852    4997.3301 
  111300    48.259059       0.1113    27.091053    1.8386892   -835.05882    2.7883739    18.523425    16.426299    4998.0519 
  111400    43.541267       0.1114    27.130031    1.9835036   -834.74563    2.5157832    18.525092    16.426704    4998.7476 
  111500    38.424611       0.1115    27.163573    2.1101538   -834.40952    2.2201466    18.526759    16.427062    4999.4154 
  111600    33.063957       0.1116    27.191893    2.2194852   -834.05949    1.9104118    18.528426    16.427371    5000.0538 
  111700    27.624112       0.1117    27.215368    2.3125495   -833.70513    1.5961014    18.530093     16.42763    5000.6613 
  111800    22.274657       0.1118    27.234488    2.3905764   -833.35625    1.2870137     18.53176    16.427837     5001.237 
  111900    17.184512       0.1119    27.249886     2.454866   -833.02267   0.99290882    18.533427     16.42799    5001.7797 
  112000    12.516265        0.112    27.262253    2.5067324   -832.71378   0.72318085    18.535094    16.428087    5002.2889 
  112100    8.4205556       0.1121     27.27231     2.547461    -832.4383   0.48653368    18.536761    16.428128    5002.7639 
  112200    5.0307874       0.1122    27.280797    2.5782369   -832.20395    0.2906753    18.538428    16.428112    5003.2043 
  112300    2.4582991       0.1123    27.288371    2.6000726   -832.01715   0.14203876    18.540095    16.428039    5003.6096 
  112400   0.78827466       0.1124    27.295564    2.6137769   -831.88281  0.045545946    18.541762    16.427909    5003.9799 
  112500  0.076580984       0.1125    27.302777    2.6199409   -831.80415 0.0044247945    18.543429     16.42772    5004.3149 
  112600    0.3476579       0.1126    27.310221    2.6188978   -831.78255  0.020087425    18.545096    16.427474    5004.6146 
  112700    1.5935744       0.1127    27.317904    2.6107084   -831.81754  0.092075588    18.546763     16.42717    5004.8792 
  112800    3.7742963       0.1128    27.325622    2.5951589   -831.90678   0.21807614     18.54843    16.426808    5005.1089 
  112900    6.8191538       0.1129    27.332974      2.57177   -832.04615   0.39400583    18.550097     16.42639    5005.3039 
  113000    10.629432        0.113    27.339403    2.5398288   -832.22992   0.61416098    18.551764    16.425916    5005.4647 
  113100    15.081964       0.1131    27.344226    2.4984184   -832.45095   0.87142508    18.553431    16.425387    5005.5919 
  113200    20.033579       0.1132    27.346654    2.4464293   -832.70092    1.1575259    18.555098    16.424803     5005.686 
  113300    25.326175       0.1133    27.345869    2.3826056   -832.97068    1.4633283    18.556764    16.424167    5005.7479 
  113400    30.792178       0.1134    27.341115    2.3056753   -833.25049      1.77915    18.558431     16.42348    5005.7787 
  113500    36.260278       0.1135    27.331647    2.2143214   -833.53043    2.0950929    18.560098    16.422744    5005.7794 
  113600    41.560988       0.1136    27.316889     2.107288   -833.80065    2.4013642    18.561765    16.421961    5005.7516 
  113700     46.53211       0.1137    27.296357    1.9834502   -834.05176    2.6885921    18.563432    16.421133    5005.6966 
  113800    51.023634       0.1138    27.269777    1.8418794   -834.27502    2.9481091    18.565099    16.420265    5005.6165 
  113900    54.902173       0.1139     27.23701    1.6818923    -834.4627    3.1722083    18.566766    16.419358    5005.5133 
  114000    58.054638        0.114    27.198111    1.5031331   -834.60821    3.3543555    18.568433    16.418418    5005.3893 
  114100    60.391176       0.1141    27.153295    1.3056202   -834.70631    3.4893589      18.5701    16.417447     5005.247 
  114200    61.847325       0.1142    27.102904    1.0897667   -834.75323    3.5734942    18.571767    16.416452    5005.0893 
  114300    62.385337       0.1143    27.047421   0.85645338   -834.74675    3.6045802    18.573434    16.415436    5004.9193 
  114400    61.994707       0.1144    26.987429   0.60700054   -834.68624    3.5820098    18.575101    16.414406    5004.7403 
  114500    60.691998       0.1145    26.923581   0.34321294   -834.57263    3.5067402    18.576768    16.413367    5004.5557 
  114600    58.519896       0.1146    26.856603  0.067311434   -834.40836    3.3812377    18.578435    16.412325    5004.3691 
  114700    55.545685       0.1147    26.787281  -0.21800872   -834.19733    3.2093899    18.580102    16.411286    5004.1845 
  114800    51.859089       0.1148    26.716425   -0.5097358   -833.94473    2.9963811    18.581769    16.410256    5004.0056 
  114900    47.569649       0.1149    26.644894  -0.80447409   -833.65693    2.7485403    18.583436    16.409243    5003.8365 
  115000     42.80356        0.115    26.573586   -1.0986186   -833.34124    2.4731591    18.585103    16.408252    5003.6811 
  115100    37.700222       0.1151    26.503411   -1.3883409   -833.00579    2.1782919     18.58677    16.407291    5003.5434 
  115200    32.408344       0.1152    26.435334   -1.6697475   -832.65923     1.872531    18.588437    16.406364    5003.4272 
  115300    27.081907       0.1153    26.370315   -1.9388995   -832.31054    1.5647732    18.590104     16.40548    5003.3361 
  115400    21.875873       0.1154    26.309348   -2.1919329   -831.96876    1.2639723    18.591771    16.404642    5003.2738 
  115500    16.941874       0.1155    26.253401   -2.4251682   -831.64274   0.97888937    18.593438    16.403857    5003.2434 
  115600    12.423906       0.1156    26.203445   -2.6350978   -831.34089   0.71784442    18.595105    16.403129    5003.2478 
  115700       8.4542       0.1157    26.160373   -2.8185701   -831.07094   0.48847763    18.596772    16.402462    5003.2898 
  115800    5.1493337       0.1158    26.125018   -2.9728075   -830.83968   0.29752482    18.598439    16.401861    5003.3715 
  115900    2.6067777       0.1159    26.098117   -3.0954363   -830.65283   0.15061775    18.600106    16.401328    5003.4948 
  116000   0.90195641        0.116    26.080263   -3.1845777   -830.51479  0.052114397    18.601773    16.400866     5003.661 
  116100  0.085936674       0.1161    26.071898    -3.238873   -830.42853 0.0049653596     18.60344    16.400475    5003.8711 
  116200   0.18384009       0.1162    26.073294   -3.2575102   -830.39552  0.010622149    18.605107    16.400157    5004.1255 
  116300    1.1940434       0.1163    26.084547   -3.2402413   -830.41565  0.068990972    18.606774    16.399912    5004.4241 
  116400    3.0881962       0.1164    26.105569   -3.1873882   -830.48727   0.17843377    18.608441    16.399738    5004.7665 
  116500    5.8120559       0.1165    26.136096   -3.0998375   -830.60719   0.33581644    18.610108    16.399635    5005.1516 
  116600    9.2871077       0.1166    26.175712   -2.9790241    -830.7708   0.53660244    18.611775    16.399599     5005.578 
  116700    13.412906       0.1167     26.22386    -2.826906   -830.97224    0.7749881    18.613442    16.399627    5006.0437 
  116800    18.070036       0.1168    26.279859   -2.6459412   -831.20452    1.0440738    18.615109    16.399717    5006.5465 
  116900    23.123605       0.1169    26.342952    -2.438993   -831.45975    1.3360654    18.616776    16.399862    5007.0838 
  117000    28.427145        0.117    26.412339     -2.20929   -831.72938    1.6425001    18.618443    16.400059    5007.6524 
  117100    33.826775       0.1171    26.487152   -1.9604198   -832.00445    1.9544869     18.62011    16.400302    5008.2492 
  117200    39.165562       0.1172    26.566543   -1.6961439   -832.27579    2.2629581    18.621777    16.400585    5008.8706 
  117300     44.28786       0.1173    26.649636   -1.4203796   -832.53435    2.5589209    18.623443    16.400903    5009.5129 
  117400    49.043691       0.1174    26.735592   -1.1371209   -832.77142    2.8337094     18.62511    16.401248    5010.1724 
  117500    53.292845       0.1175    26.823552  -0.85029347   -832.97885    3.0792225    18.626777    16.401615    5010.8451 
  117600    56.908872       0.1176    26.912697  -0.56373408   -833.14931    3.2881539    18.628444    16.401998    5011.5271 
  117700    59.782641       0.1177      27.0022  -0.28104076    -833.2765    3.4541983    18.630111    16.402389    5012.2146 
  117800    61.825585       0.1178    27.091239 -0.0055678067   -833.35531    3.5722381    18.631778    16.402783    5012.9038 
  117900    62.972435       0.1179    27.179012   0.25972537   -833.38199    3.6385022    18.633445    16.403173     5013.591 
  118000    63.183442        0.118    27.264715   0.51223513   -833.35428    3.6506941    18.635112    16.403554    5014.2726 
  118100    62.445945       0.1181    27.347564   0.74983996   -833.27151     3.608082    18.636779    16.403921    5014.9454 
  118200    60.775328       0.1182     27.42682   0.97085019   -833.13461     3.511555    18.638446    16.404268    5015.6062 
  118300    58.215135       0.1183    27.501791    1.1740921   -832.94616    3.3636289    18.640113    16.404591    5016.2522 
  118400    54.836453       0.1184    27.571855     1.358801   -832.71034     3.168411     18.64178    16.404885    5016.8807 
  118500    50.736399       0.1185     27.63652    1.5247199   -832.43282    2.9315128    18.643447    16.405147    5017.4894 
  118600    46.035784       0.1186    27.695417    1.6719366   -832.12063    2.6599147    18.645114    16.405373    5018.0761 
  118700    40.875862       0.1187     27.74832    1.8009391     -831.782    2.3617781    18.646781    16.405559    5018.6391 
  118800    35.414387       0.1188    27.795206    1.9124887   -831.42609    2.0462179    18.648448    16.405705    5019.1766 
  118900    29.820824       0.1189    27.836182    2.0075848   -831.06273    1.7230259    18.650115    16.405806    5019.6874 
  119000    24.271119        0.119    27.871573    2.0874141   -830.70213    1.4023679    18.651782    16.405862    5020.1702 
  119100    18.941944       0.1191      27.9018    2.1532028   -830.35451     1.094452    18.653449     16.40587    5020.6241 
  119200    14.004816       0.1192    27.927459    2.2062878   -830.02981   0.80918824    18.655116     16.40583    5021.0482 
  119300    9.6201583       0.1193    27.949163    2.2479005    -829.7373   0.55584586    18.656783    16.405741    5021.4421 
  119400    5.9316788       0.1194    27.967574     2.279199   -829.48529   0.34272816     18.65845    16.405601    5021.8053 
  119500    3.0612027       0.1195    27.983332    2.3012099   -829.28082    0.1768741    18.660117    16.405411    5022.1373 
  119600    1.1042168       0.1196     27.99697    2.3147668   -829.12938  0.063800856    18.661784    16.405169     5022.438 
  119700   0.12634436       0.1197    28.008878    2.3204716   -829.03475 0.0073000868    18.663451    16.404876    5022.7074 
  119800   0.16089784       0.1198    28.019286    2.3186874   -828.99885  0.009296562    18.665118    16.404532    5022.9453 
  119900    1.2076148       0.1199     28.02822    2.3095193   -829.02163  0.069775117    18.666785    16.404137     5023.152 
  120000    3.2326441         0.12    28.035496     2.292809   -829.10111   0.18677986    18.668452    16.403692    5023.3276 
  120100     6.169782       0.1201    28.040732    2.2681443   -829.23343   0.35648559    18.670119    16.403196    5023.4725 
  120200    9.9228894       0.1202    28.043384     2.234875   -829.41302   0.57333745    18.671786    16.402651    5023.5871 
  120300    14.369394       0.1203     28.04277    2.1921332   -829.63276   0.83025329    18.673453    16.402057     5023.672 
  120400    19.364724       0.1204    28.038106    2.1388692   -829.88426    1.1188799     18.67512    16.401416    5023.7278 
  120500     24.74745       0.1205    28.028607    2.0739221   -830.15817    1.4298899    18.676787    16.400729    5023.7553 
  120600    30.344899       0.1206    28.013535    1.9960341   -830.44447    1.7533066    18.678454    16.399998    5023.7557 
  120700    35.979105       0.1207    27.992198     1.903899   -830.73286    2.0788469    18.680121    16.399225    5023.7301 
  120800    41.472705       0.1208    27.964094    1.7963195   -831.01304    2.3962632    18.681788    16.398411    5023.6799 
  120900    46.654717       0.1209    27.928842    1.6721145   -831.27509    2.6956762    18.683455     16.39756    5023.6067 
  121000    51.365874        0.121    27.886299    1.5303627   -831.50978    2.9678834    18.685122    16.396674    5023.5123 
  121100    55.463427       0.1211    27.836499     1.370318   -831.70881    3.2046372    18.686789    16.395758    5023.3989 
  121200    58.825268       0.1212    27.779682     1.191579    -831.8651    3.3988819    18.688456    16.394814    5023.2687 
  121300     61.35321       0.1213    27.716288    0.9940829   -831.97294    3.5449446    18.690122    16.393848    5023.1245 
  121400    62.975514       0.1214    27.646903   0.77819174   -832.02813    3.6386802    18.691789    16.392863    5022.9689 
  121500    63.648467       0.1215    27.572254   0.54468225   -832.02813    3.6775629    18.693456    16.391865    5022.8051 
  121600    63.357154       0.1216    27.493184   0.29484675   -831.97205    3.6607311    18.695123    16.390859    5022.6365 
  121700    62.115374       0.1217    27.410599  0.030395785   -831.86068    3.5889819     18.69679    16.389851    5022.4664 
  121800    59.964822       0.1218    27.325457   -0.2464425   -831.69642    3.4647245    18.698457    16.388846    5022.2987 
  121900    56.973466       0.1219    27.238758   -0.5330327   -831.48321    3.2918861    18.700124    16.387852    5022.1372 
  122000    53.233372        0.122    27.151503  -0.82629943   -831.22638    3.0757862    18.701791    16.386875    5021.9857 
  122100    48.857867       0.1221    27.064694   -1.1228588   -830.93254    2.8229726    18.703458     16.38592    5021.8483 
  122200    43.978224       0.1222    26.979347   -1.4189883   -830.60931    2.5410304    18.705125    16.384996    5021.7291 
  122300    38.739898       0.1223    26.896453   -1.7108146   -830.26517    2.2383636    18.706792    16.384107    5021.6321 
  122400    33.298427       0.1224    26.817002   -1.9942824   -829.90917    1.9239593    18.708459    16.383261     5021.561 
  122500    27.815009       0.1225    26.741978   -2.2653581   -829.55074    1.6071313    18.710126    16.382464    5021.5197 
  122600    22.451982       0.1226     26.67233   -2.5200166   -829.19933    1.2972595    18.711793    16.381722    5021.5118 
  122700    17.368159       0.1227    26.608996   -2.7544055   -828.86421    1.0035198     18.71346    16.381039    5021.5404 
  122800    12.714253       0.1228    26.552866    -2.964914    -828.5542   0.73462043    18.715127     16.38042    5021.6087 
  122900    8.6284867       0.1229     26.50476   -3.1482304   -828.27737   0.49854779    18.716794    16.379871    5021.7191 
  123000    5.2324756        0.123    26.465443   -3.3014223   -828.04081    0.3023287    18.718461    16.379394    5021.8741 
  123100    2.6275768       0.1231    26.435567   -3.4220435   -827.85044   0.15181951    18.720128    16.378993    5022.0753 
  123200   0.89180785       0.1232    26.415662   -3.5081468   -827.71082   0.05152802    18.721795     16.37867    5022.3242 
