ITEM: TIMESTEP
5000
ITEM: NUMBER OF ATOMS
448
ITEM: BOX BOUNDS pp pp pp
-1.3071533868528362e-01 1.6620715338684541e+01
-9.3564493992930764e-02 1.6583564493991979e+01
-9.3564493992930764e-02 1.6583564493991979e+01
ITEM: ATOMS id type xs ys zs
1 1 0.0625 0.0625 0.0625
3 3 0.128772 0.128596 0.128596
401 3 0.246228 0.128596 0.246404
439 3 0.246228 0.246404 0.128596
445 3 0.128772 0.246404 0.246404
385 2 0.125 0.25 0.125
433 2 0.125 0.125 0.25
427 2 0.25 0.125 0.125
2 2 0.25 0.25 0.25
10 1 0.4375 0.1875 0.1875
46 2 0.375 1.20719e-14 0.125
75 2 0.375 0.125 -4.36044e-16
76 3 0.253772 0.00359631 0.121404
339 3 0.253772 0.121404 0.00359631
354 3 0.371228 0.121404 0.121404
428 3 0.371228 0.00359631 0.00359631
130 1 0.5625 0.0625 0.0625
280 3 0.746228 0.246404 0.128596
315 3 0.746228 0.128596 0.246404
363 3 0.628772 0.128596 0.128596
411 3 0.628772 0.246404 0.246404
153 2 0.625 0.25 0.125
213 2 0.625 0.125 0.25
101 3 0.753772 0.121404 0.00359631
238 1 0.9375 0.1875 0.1875
264 3 0.753772 0.00359631 0.121404
361 2 0.75 1.32253e-14 2.09085e-14
362 3 0.871228 0.121404 0.121404
395 2 0.75 0.125 0.125
396 3 0.871228 0.00359631 0.00359631
211 2 1 0.25 -1.59106e-15
90 2 0.75 0.25 0.25
13 1 0.1875 0.4375 0.1875
240 3 0.00377211 0.253596 0.121404
273 3 0.121228 0.253596 0.00359631
386 3 0.00377211 0.371404 0.00359631
444 3 0.121228 0.371404 0.121404
50 1 0.3125 0.3125 0.0625
253 3 0.496228 0.378596 0.246404
312 3 0.378772 0.496404 0.246404
337 3 0.378772 0.378596 0.128596
372 3 0.496228 0.496404 0.128596
219 2 0.5 0.375 0.125
252 2 0.375 0.5 0.125
371 2 0.375 0.375 0.25
291 2 0.5 0.5 0.25
12 3 0.503772 0.253596 0.121404
33 1 0.6875 0.4375 0.1875
154 3 0.503772 0.371404 0.00359631
220 3 0.621228 0.253596 0.00359631
304 3 0.621228 0.371404 0.121404
180 2 1 0.375 0.125
26 3 0.996228 0.378596 0.246404
30 1 0.8125 0.3125 0.0625
145 3 0.996228 0.496404 0.128596
181 3 0.878772 0.496404 0.246404
351 3 0.878772 0.378596 0.128596
25 2 0.875 0.5 0.125
204 2 0.75 0.5 2.47979e-16
144 2 0.875 0.375 0.25
195 2 1 0.5 0.25
39 1 0.0625 0.5625 0.0625
246 3 0.128772 0.746404 0.246404
342 3 0.246228 0.746404 0.128596
374 3 0.246228 0.628596 0.246404
421 3 0.128772 0.628596 0.128596
202 2 0.125 0.625 0.25
245 2 0.25 0.625 0.125
15 3 0.253772 0.503596 0.121404
83 1 0.4375 0.6875 0.1875
281 3 0.253772 0.621404 0.00359631
309 3 0.371228 0.503596 0.00359631
331 3 0.371228 0.621404 0.121404
22 1 0.5625 0.5625 0.0625
24 3 0.628772 0.628596 0.128596
60 3 0.628772 0.746404 0.246404
349 3 0.746228 0.628596 0.246404
418 3 0.746228 0.746404 0.128596
365 2 0.625 0.625 0.25
36 1 0.9375 0.6875 0.1875
59 2 0.75 0.625 0.125
161 3 0.753772 0.621404 0.00359631
232 3 0.753772 0.503596 0.121404
320 3 0.871228 0.621404 0.121404
322 3 0.871228 0.503596 0.00359631
74 1 0.1875 0.9375 0.1875
139 2 7.58698e-15 0.75 1.637e-14
229 3 0.121228 0.753596 0.00359631
263 3 0.00377211 0.753596 0.121404
373 2 0.125 0.75 0.125
416 3 0.00377211 0.871404 0.00359631
419 3 0.121228 0.871404 0.121404
353 2 0.25 1 -3.6165e-15
69 2 0.25 0.75 0.25
47 3 0.496228 0.878596 0.246404
121 1 0.3125 0.8125 0.0625
123 3 0.378772 0.878596 0.128596
132 3 0.496228 0.996404 0.128596
169 3 0.378772 0.996404 0.246404
168 2 0.5 0.875 0.125
122 2 0.5 1 0.25
131 2 0.375 0.875 0.25
85 3 0.503772 0.753596 0.121404
103 2 0.625 0.75 0.125
104 3 0.503772 0.871404 0.00359631
108 1 0.6875 0.9375 0.1875
286 3 0.621228 0.871404 0.121404
300 3 0.621228 0.753596 0.00359631
100 2 0.875 1 0.125
57 2 1 0.875 0.125
58 3 0.878772 0.996404 0.246404
64 1 0.8125 0.8125 0.0625
261 3 0.996228 0.878596 0.246404
308 3 0.878772 0.878596 0.128596
406 3 0.996228 0.996404 0.128596
307 2 1 1 0.25
23 2 0.75 0.75 0.25
391 2 0.875 0.875 0.25
27 1 0.1875 0.1875 0.4375
241 2 0.125 6.07299e-15 0.375
242 3 0.00377211 0.121404 0.253596
314 3 0.121228 0.00359631 0.253596
325 3 0.121228 0.121404 0.371404
434 3 0.00377211 0.00359631 0.371404
206 2 0.25 4.49691e-15 0.5
7 1 0.3125 0.0625 0.3125
235 3 0.496228 0.246404 0.378596
276 3 0.378772 0.246404 0.496404
420 3 0.378772 0.128596 0.378596
436 3 0.496228 0.128596 0.496404
109 2 0.5 0.125 0.375
435 2 0.375 0.25 0.375
234 2 0.375 0.125 0.5
142 2 0.5 0.25 0.5
48 2 0.625 -3.21042e-15 0.375
49 3 0.503772 0.121404 0.253596
53 1 0.6875 0.1875 0.4375
110 3 0.621228 0.00359631 0.253596
214 3 0.503772 0.00359631 0.371404
357 3 0.621228 0.121404 0.371404
151 2 1 0.125 0.375
18 3 0.996228 0.246404 0.378596
56 1 0.8125 0.0625 0.3125
152 3 0.878772 0.246404 0.496404
223 3 0.996228 0.128596 0.496404
288 3 0.878772 0.128596 0.378596
222 2 0.875 0.25 0.375
17 2 0.875 0.125 0.5
287 2 1 0.25 0.5
16 1 0.0625 0.3125 0.3125
82 3 0.246228 0.496404 0.378596
327 3 0.246228 0.378596 0.496404
360 3 0.128772 0.378596 0.378596
382 3 0.128772 0.496404 0.496404
67 2 0.125 0.5 0.375
81 2 0.125 0.375 0.5
381 2 0.25 0.375 0.375
359 2 0.25 0.5 0.5
188 1 0.4375 0.4375 0.4375
189 3 0.371228 0.371404 0.371404
397 3 0.253772 0.253596 0.371404
441 3 0.253772 0.371404 0.253596
448 3 0.371228 0.253596 0.253596
173 3 0.746228 0.378596 0.496404
233 1 0.5625 0.3125 0.3125
262 3 0.746228 0.496404 0.378596
356 3 0.628772 0.378596 0.378596
408 3 0.628772 0.496404 0.496404
172 2 0.625 0.5 0.375
116 2 0.625 0.375 0.5
89 1 0.9375 0.4375 0.4375
91 3 0.871228 0.371404 0.371404
296 3 0.753772 0.253596 0.371404
317 3 0.753772 0.371404 0.253596
407 2 0.75 0.375 0.375
414 3 0.871228 0.253596 0.253596
355 2 0.75 0.5 0.5
68 3 0.00377211 0.621404 0.253596
95 3 0.121228 0.503596 0.253596
194 1 0.1875 0.6875 0.4375
196 3 0.121228 0.621404 0.371404
203 3 0.00377211 0.503596 0.371404
80 1 0.3125 0.5625 0.3125
163 3 0.378772 0.746404 0.496404
265 3 0.496228 0.746404 0.378596
425 3 0.496228 0.628596 0.496404
443 3 0.378772 0.628596 0.378596
34 2 0.5 0.625 0.375
184 2 0.375 0.625 0.5
35 3 0.621228 0.503596 0.253596
42 1 0.6875 0.6875 0.4375
251 3 0.503772 0.621404 0.253596
292 3 0.621228 0.621404 0.371404
366 3 0.503772 0.503596 0.371404
94 2 1 0.625 0.375
79 3 0.996228 0.746404 0.378596
175 3 0.996228 0.628596 0.496404
179 1 0.8125 0.5625 0.3125
284 3 0.878772 0.746404 0.496404
302 3 0.878772 0.628596 0.378596
78 2 0.875 0.625 0.5
9 3 0.246228 0.996404 0.378596
77 1 0.0625 0.8125 0.3125
293 3 0.128772 0.996404 0.496404
297 3 0.246228 0.878596 0.496404
319 3 0.128772 0.878596 0.378596
8 2 0.125 0.875 0.5
256 2 0.25 0.875 0.375
61 1 0.4375 0.9375 0.4375
70 3 0.371228 0.871404 0.371404
257 3 0.371228 0.753596 0.253596
330 3 0.253772 0.753596 0.371404
377 2 0.375 0.75 0.375
378 3 0.253772 0.871404 0.253596
208 2 0.5 0.75 0.5
45 1 0.5625 0.8125 0.3125
228 3 0.746228 0.878596 0.496404
237 3 0.746228 0.996404 0.378596
332 3 0.628772 0.878596 0.378596
334 3 0.628772 0.996404 0.496404
236 2 0.625 0.875 0.5
37 2 0.75 0.875 0.375
38 3 0.871228 0.753596 0.253596
174 2 0.875 0.75 0.375
247 1 0.9375 0.9375 0.4375
345 3 0.753772 0.871404 0.253596
392 3 0.753772 0.753596 0.371404
403 3 0.871228 0.871404 0.371404
134 2 0.75 1 0.5
301 2 1 0.75 0.5
107 3 0.246228 0.128596 0.746404
221 1 0.0625 0.0625 0.5625
321 3 0.128772 0.246404 0.746404
368 3 0.246228 0.246404 0.628596
404 3 0.128772 0.128596 0.628596
106 2 0.125 0.25 0.625
62 2 0.25 0.125 0.625
29 3 0.253772 0.121404 0.503596
63 3 0.371228 0.00359631 0.503596
115 1 0.4375 0.1875 0.6875
207 3 0.371228 0.121404 0.621404
271 3 0.253772 0.00359631 0.621404
71 1 0.5625 0.0625 0.5625
73 3 0.628772 0.128596 0.628596
201 3 0.746228 0.246404 0.628596
310 3 0.628772 0.246404 0.746404
415 3 0.746228 0.128596 0.746404
375 2 0.625 0.25 0.625
133 1 0.9375 0.1875 0.6875
135 3 0.871228 0.121404 0.621404
199 3 0.753772 0.00359631 0.621404
248 2 0.75 0.125 0.625
249 3 0.871228 0.00359631 0.503596
255 3 0.753772 0.121404 0.503596
167 3 0.121228 0.253596 0.503596
176 1 0.1875 0.4375 0.6875
335 3 0.121228 0.371404 0.621404
344 3 0.00377211 0.253596 0.621404
350 3 0.00377211 0.371404 0.503596
98 3 0.496228 0.378596 0.746404
230 3 0.378772 0.496404 0.746404
275 1 0.3125 0.3125 0.5625
326 3 0.378772 0.378596 0.628596
390 3 0.496228 0.496404 0.628596
54 2 0.5 0.375 0.625
97 2 0.375 0.5 0.625
55 3 0.621228 0.253596 0.503596
117 3 0.503772 0.253596 0.621404
141 1 0.6875 0.4375 0.6875
143 3 0.621228 0.371404 0.621404
376 3 0.503772 0.371404 0.503596
166 2 1 0.375 0.625
150 1 0.8125 0.3125 0.5625
299 3 0.878772 0.496404 0.746404
329 3 0.996228 0.496404 0.628596
340 3 0.996228 0.378596 0.746404
358 3 0.878772 0.378596 0.628596
43 2 0.875 0.5 0.625
86 1 0.0625 0.5625 0.5625
88 3 0.128772 0.628596 0.628596
157 3 0.246228 0.628596 0.746404
216 3 0.246228 0.746404 0.628596
394 3 0.128772 0.746404 0.746404
393 2 0.25 0.625 0.625
185 3 0.253772 0.503596 0.621404
260 3 0.253772 0.621404 0.503596
266 1 0.4375 0.6875 0.6875
399 3 0.371228 0.621404 0.621404
412 3 0.371228 0.503596 0.503596
190 1 0.5625 0.5625 0.5625
191 3 0.628772 0.628596 0.628596
388 3 0.746228 0.628596 0.746404
430 3 0.628772 0.746404 0.746404
432 3 0.746228 0.746404 0.628596
44 3 0.753772 0.621404 0.503596
124 1 0.9375 0.6875 0.6875
347 3 0.753772 0.503596 0.621404
423 3 0.871228 0.621404 0.621404
429 2 0.75 0.625 0.625
446 3 0.871228 0.503596 0.503596
125 3 0.00377211 0.753596 0.621404
156 2 0.125 0.75 0.625
164 1 0.1875 0.9375 0.6875
311 3 0.121228 0.753596 0.503596
316 3 0.00377211 0.871404 0.503596
324 3 0.121228 0.871404 0.621404
28 2 0.375 1 0.625
159 3 0.496228 0.878596 0.746404
162 1 0.3125 0.8125 0.5625
193 3 0.378772 0.878596 0.628596
274 3 0.378772 0.996404 0.746404
295 3 0.496228 0.996404 0.628596
182 2 0.5 0.875 0.625
183 3 0.621228 0.753596 0.503596
198 1 0.6875 0.9375 0.6875
209 3 0.621228 0.871404 0.621404
267 3 0.503772 0.753596 0.621404
387 2 0.625 0.75 0.625
402 3 0.503772 0.871404 0.503596
254 2 0.875 1 0.625
217 2 1 0.875 0.625
218 3 0.878772 0.996404 0.746404
227 1 0.8125 0.8125 0.5625
282 3 0.996228 0.878596 0.746404
290 3 0.878772 0.878596 0.628596
398 3 0.996228 0.996404 0.628596
165 3 0.121228 0.00359631 0.753596
171 3 0.00377211 0.121404 0.753596
272 1 0.1875 0.1875 0.9375
289 2 5.48271e-15 9.40241e-15 0.75
338 3 0.121228 0.121404 0.871404
367 2 0.125 0.125 0.75
417 3 0.00377211 0.00359631 0.871404
20 2 0.25 0.25 0.75
303 2 0.5 0.25 1
93 3 0.378772 0.246404 0.996404
105 1 0.3125 0.0625 0.8125
323 3 0.378772 0.128596 0.878596
346 3 0.496228 0.128596 0.996404
348 3 0.496228 0.246404 0.878596
92 2 0.5 0.125 0.875
177 2 0.375 0.25 0.875
99 1 0.6875 0.1875 0.9375
200 2 0.625 0.125 0.75
283 3 0.621228 0.00359631 0.753596
328 3 0.503772 0.121404 0.753596
341 3 0.503772 0.00359631 0.871404
352 3 0.621228 0.121404 0.871404
186 2 0.875 0.125 1
31 2 1 0.125 0.875
32 3 0.878772 0.246404 0.996404
187 3 0.996228 0.246404 0.878596
210 1 0.8125 0.0625 0.8125
212 3 0.878772 0.128596 0.878596
380 3 0.996228 0.128596 0.996404
72 2 0.75 0.25 0.75
379 2 0.875 0.25 0.875
239 2 0.125 0.375 1
41 3 0.128772 0.496404 0.996404
52 3 0.246228 0.378596 0.996404
136 1 0.0625 0.3125 0.8125
138 3 0.128772 0.378596 0.878596
268 3 0.246228 0.496404 0.878596
51 2 0.125 0.5 0.875
137 2 0.25 0.5 1
40 2 0.25 0.375 0.875
19 1 0.4375 0.4375 0.9375
21 3 0.371228 0.371404 0.871404
178 3 0.253772 0.371404 0.753596
333 3 0.371228 0.253596 0.753596
389 2 0.375 0.375 0.75
405 3 0.253772 0.253596 0.871404
305 2 0.5 0.5 0.75
11 2 0.625 0.375 1
96 1 0.5625 0.3125 0.8125
127 3 0.746228 0.496404 0.878596
205 3 0.628772 0.378596 0.878596
244 3 0.746228 0.378596 0.996404
259 3 0.628772 0.496404 0.996404
243 2 0.625 0.5 0.875
128 2 0.875 0.375 0.75
129 3 0.753772 0.253596 0.871404
258 2 0.75 0.375 0.875
278 1 0.9375 0.4375 0.9375
294 3 0.871228 0.253596 0.753596
422 3 0.871228 0.371404 0.871404
426 3 0.753772 0.371404 0.753596
119 2 1 0.5 0.75
118 1 0.1875 0.6875 0.9375
120 3 0.121228 0.621404 0.871404
215 2 0.125 0.625 0.75
226 3 0.00377211 0.621404 0.753596
277 3 0.121228 0.503596 0.753596
279 3 0.00377211 0.503596 0.871404
14 2 0.375 0.625 1
155 1 0.3125 0.5625 0.8125
197 3 0.496228 0.746404 0.878596
313 3 0.378772 0.746404 0.996404
318 3 0.496228 0.628596 0.996404
336 3 0.378772 0.628596 0.878596
148 2 0.5 0.625 0.875
149 3 0.621228 0.503596 0.753596
160 1 0.6875 0.6875 0.9375
298 3 0.503772 0.621404 0.753596
306 3 0.621228 0.621404 0.871404
431 2 0.625 0.625 0.75
440 3 0.503772 0.503596 0.871404
231 2 0.875 0.625 1
111 2 1 0.625 0.875
112 3 0.878772 0.746404 0.996404
126 1 0.8125 0.5625 0.8125
140 3 0.878772 0.628596 0.878596
270 3 0.996228 0.746404 0.878596
442 3 0.996228 0.628596 0.996404
113 2 0.125 0.875 1
170 2 0.125 1 0.875
114 3 0.246228 0.996404 0.878596
250 3 0.246228 0.878596 0.996404
269 1 0.0625 0.8125 0.8125
413 3 0.128772 0.996404 0.996404
424 3 0.128772 0.878596 0.878596
87 2 0.25 0.75 0.75
409 2 0.25 0.875 0.875
285 2 0.5 0.75 1
192 2 0.5 1 0.75
102 1 0.4375 0.9375 0.9375
146 2 0.375 0.875 0.75
147 3 0.253772 0.753596 0.871404
224 2 0.375 0.75 0.875
225 3 0.253772 0.871404 0.753596
364 3 0.371228 0.871404 0.871404
410 3 0.371228 0.753596 0.753596
84 2 0.625 0.875 1
65 2 0.625 1 0.875
66 3 0.746228 0.878596 0.996404
158 1 0.5625 0.8125 0.8125
343 3 0.746228 0.996404 0.878596
400 3 0.628772 0.878596 0.878596
447 3 0.628772 0.996404 0.996404
4 1 0.9375 0.9375 0.9375
5 2 0.75 0.75 0.75
6 3 0.871228 0.871404 0.871404
369 2 0.875 0.875 0.75
370 3 0.753772 0.753596 0.871404
383 2 0.75 0.875 0.875
384 3 0.871228 0.753596 0.753596
437 2 0.875 0.75 0.875
438 3 0.753772 0.871404 0.753596
ITEM: TIMESTEP
10000
ITEM: NUMBER OF ATOMS
448
ITEM: BOX BOUNDS pp pp pp
-1.7238971095458860e-01 1.6662389710953846e+01
-9.0288655981794363e-02 1.6580288655980649e+01
-9.0288655981796140e-02 1.6580288655980649e+01
ITEM: ATOMS id type xs ys zs
1 1 0.0625 0.0625 0.0625
3 3 0.130719 0.130552 0.130552
401 3 0.244281 0.130552 0.244448
439 3 0.244281 0.244448 0.130552
445 3 0.130719 0.244448 0.244448
385 2 0.125 0.25 0.125
433 2 0.125 0.125 0.25
427 2 0.25 0.125 0.125
2 2 0.25 0.25 0.25
10 1 0.4375 0.1875 0.1875
46 2 0.375 -2.0582e-14 0.125
75 2 0.375 0.125 -1.78532e-14
76 3 0.255719 0.00555152 0.119448
339 3 0.255719 0.119448 0.00555152
354 3 0.369281 0.119448 0.119448
428 3 0.369281 0.00555152 0.00555152
130 1 0.5625 0.0625 0.0625
280 3 0.744281 0.244448 0.130552
315 3 0.744281 0.130552 0.244448
363 3 0.630719 0.130552 0.130552
411 3 0.630719 0.244448 0.244448
153 2 0.625 0.25 0.125
213 2 0.625 0.125 0.25
101 3 0.755719 0.119448 0.00555152
238 1 0.9375 0.1875 0.1875
264 3 0.755719 0.00555152 0.119448
361 2 0.75 -1.08263e-14 4.2198e-15
362 3 0.869281 0.119448 0.119448
395 2 0.75 0.125 0.125
396 3 0.869281 0.00555152 0.00555152
211 2 1 0.25 -1.69924e-14
90 2 0.75 0.25 0.25
13 1 0.1875 0.4375 0.1875
240 3 0.00571895 0.255552 0.119448
273 3 0.119281 0.255552 0.00555152
386 3 0.00571895 0.369448 0.00555152
444 3 0.119281 0.369448 0.119448
50 1 0.3125 0.3125 0.0625
253 3 0.494281 0.380552 0.244448
312 3 0.380719 0.494448 0.244448
337 3 0.380719 0.380552 0.130552
372 3 0.494281 0.494448 0.130552
219 2 0.5 0.375 0.125
252 2 0.375 0.5 0.125
371 2 0.375 0.375 0.25
291 2 0.5 0.5 0.25
12 3 0.505719 0.255552 0.119448
33 1 0.6875 0.4375 0.1875
154 3 0.505719 0.369448 0.00555152
220 3 0.619281 0.255552 0.00555152
304 3 0.619281 0.369448 0.119448
180 2 1 0.375 0.125
26 3 0.994281 0.380552 0.244448
30 1 0.8125 0.3125 0.0625
145 3 0.994281 0.494448 0.130552
181 3 0.880719 0.494448 0.244448
351 3 0.880719 0.380552 0.130552
25 2 0.875 0.5 0.125
204 2 0.75 0.5 -1.52925e-14
144 2 0.875 0.375 0.25
195 2 1 0.5 0.25
39 1 0.0625 0.5625 0.0625
246 3 0.130719 0.744448 0.244448
342 3 0.244281 0.744448 0.130552
374 3 0.244281 0.630552 0.244448
421 3 0.130719 0.630552 0.130552
202 2 0.125 0.625 0.25
245 2 0.25 0.625 0.125
15 3 0.255719 0.505552 0.119448
83 1 0.4375 0.6875 0.1875
281 3 0.255719 0.619448 0.00555152
309 3 0.369281 0.505552 0.00555152
331 3 0.369281 0.619448 0.119448
22 1 0.5625 0.5625 0.0625
24 3 0.630719 0.630552 0.130552
60 3 0.630719 0.744448 0.244448
349 3 0.744281 0.630552 0.244448
418 3 0.744281 0.744448 0.130552
365 2 0.625 0.625 0.25
36 1 0.9375 0.6875 0.1875
59 2 0.75 0.625 0.125
161 3 0.755719 0.619448 0.00555152
232 3 0.755719 0.505552 0.119448
320 3 0.869281 0.619448 0.119448
322 3 0.869281 0.505552 0.00555152
74 1 0.1875 0.9375 0.1875
139 2 7.99951e-15 0.75 -1.24388e-14
229 3 0.119281 0.755552 0.00555152
263 3 0.00571895 0.755552 0.119448
373 2 0.125 0.75 0.125
416 3 0.00571895 0.869448 0.00555152
419 3 0.119281 0.869448 0.119448
353 2 0.25 1 -9.70829e-15
69 2 0.25 0.75 0.25
47 3 0.494281 0.880552 0.244448
121 1 0.3125 0.8125 0.0625
123 3 0.380719 0.880552 0.130552
132 3 0.494281 0.994448 0.130552
169 3 0.380719 0.994448 0.244448
168 2 0.5 0.875 0.125
122 2 0.5 1 0.25
131 2 0.375 0.875 0.25
85 3 0.505719 0.755552 0.119448
103 2 0.625 0.75 0.125
104 3 0.505719 0.869448 0.00555152
108 1 0.6875 0.9375 0.1875
286 3 0.619281 0.869448 0.119448
300 3 0.619281 0.755552 0.00555152
100 2 0.875 1 0.125
57 2 1 0.875 0.125
58 3 0.880719 0.994448 0.244448
64 1 0.8125 0.8125 0.0625
261 3 0.994281 0.880552 0.244448
308 3 0.880719 0.880552 0.130552
406 3 0.994281 0.994448 0.130552
307 2 1 1 0.25
23 2 0.75 0.75 0.25
391 2 0.875 0.875 0.25
27 1 0.1875 0.1875 0.4375
241 2 0.125 -7.72034e-15 0.375
242 3 0.00571895 0.119448 0.255552
314 3 0.119281 0.00555152 0.255552
325 3 0.119281 0.119448 0.369448
434 3 0.00571895 0.00555152 0.369448
206 2 0.25 -1.27576e-14 0.5
7 1 0.3125 0.0625 0.3125
235 3 0.494281 0.244448 0.380552
276 3 0.380719 0.244448 0.494448
420 3 0.380719 0.130552 0.380552
436 3 0.494281 0.130552 0.494448
109 2 0.5 0.125 0.375
435 2 0.375 0.25 0.375
234 2 0.375 0.125 0.5
142 2 0.5 0.25 0.5
48 2 0.625 -2.8672e-14 0.375
49 3 0.505719 0.119448 0.255552
53 1 0.6875 0.1875 0.4375
110 3 0.619281 0.00555152 0.255552
214 3 0.505719 0.00555152 0.369448
357 3 0.619281 0.119448 0.369448
151 2 1 0.125 0.375
18 3 0.994281 0.244448 0.380552
56 1 0.8125 0.0625 0.3125
152 3 0.880719 0.244448 0.494448
223 3 0.994281 0.130552 0.494448
288 3 0.880719 0.130552 0.380552
222 2 0.875 0.25 0.375
17 2 0.875 0.125 0.5
287 2 1 0.25 0.5
16 1 0.0625 0.3125 0.3125
82 3 0.244281 0.494448 0.380552
327 3 0.244281 0.380552 0.494448
360 3 0.130719 0.380552 0.380552
382 3 0.130719 0.494448 0.494448
67 2 0.125 0.5 0.375
81 2 0.125 0.375 0.5
381 2 0.25 0.375 0.375
359 2 0.25 0.5 0.5
188 1 0.4375 0.4375 0.4375
189 3 0.369281 0.369448 0.369448
397 3 0.255719 0.255552 0.369448
441 3 0.255719 0.369448 0.255552
448 3 0.369281 0.255552 0.255552
173 3 0.744281 0.380552 0.494448
233 1 0.5625 0.3125 0.3125
262 3 0.744281 0.494448 0.380552
356 3 0.630719 0.380552 0.380552
408 3 0.630719 0.494448 0.494448
172 2 0.625 0.5 0.375
116 2 0.625 0.375 0.5
89 1 0.9375 0.4375 0.4375
91 3 0.869281 0.369448 0.369448
296 3 0.755719 0.255552 0.369448
317 3 0.755719 0.369448 0.255552
407 2 0.75 0.375 0.375
414 3 0.869281 0.255552 0.255552
355 2 0.75 0.5 0.5
68 3 0.00571895 0.619448 0.255552
95 3 0.119281 0.505552 0.255552
194 1 0.1875 0.6875 0.4375
196 3 0.119281 0.619448 0.369448
203 3 0.00571895 0.505552 0.369448
80 1 0.3125 0.5625 0.3125
163 3 0.380719 0.744448 0.494448
265 3 0.494281 0.744448 0.380552
425 3 0.494281 0.630552 0.494448
443 3 0.380719 0.630552 0.380552
34 2 0.5 0.625 0.375
184 2 0.375 0.625 0.5
35 3 0.619281 0.505552 0.255552
42 1 0.6875 0.6875 0.4375
251 3 0.505719 0.619448 0.255552
292 3 0.619281 0.619448 0.369448
366 3 0.505719 0.505552 0.369448
94 2 1 0.625 0.375
79 3 0.994281 0.744448 0.380552
175 3 0.994281 0.630552 0.494448
179 1 0.8125 0.5625 0.3125
284 3 0.880719 0.744448 0.494448
302 3 0.880719 0.630552 0.380552
78 2 0.875 0.625 0.5
9 3 0.244281 0.994448 0.380552
77 1 0.0625 0.8125 0.3125
293 3 0.130719 0.994448 0.494448
297 3 0.244281 0.880552 0.494448
319 3 0.130719 0.880552 0.380552
8 2 0.125 0.875 0.5
256 2 0.25 0.875 0.375
61 1 0.4375 0.9375 0.4375
70 3 0.369281 0.869448 0.369448
257 3 0.369281 0.755552 0.255552
330 3 0.255719 0.755552 0.369448
377 2 0.375 0.75 0.375
378 3 0.255719 0.869448 0.255552
208 2 0.5 0.75 0.5
45 1 0.5625 0.8125 0.3125
228 3 0.744281 0.880552 0.494448
237 3 0.744281 0.994448 0.380552
332 3 0.630719 0.880552 0.380552
334 3 0.630719 0.994448 0.494448
236 2 0.625 0.875 0.5
37 2 0.75 0.875 0.375
38 3 0.869281 0.755552 0.255552
174 2 0.875 0.75 0.375
247 1 0.9375 0.9375 0.4375
345 3 0.755719 0.869448 0.255552
392 3 0.755719 0.755552 0.369448
403 3 0.869281 0.869448 0.369448
134 2 0.75 1 0.5
301 2 1 0.75 0.5
107 3 0.244281 0.130552 0.744448
221 1 0.0625 0.0625 0.5625
321 3 0.130719 0.244448 0.744448
368 3 0.244281 0.244448 0.630552
404 3 0.130719 0.130552 0.630552
106 2 0.125 0.25 0.625
62 2 0.25 0.125 0.625
29 3 0.255719 0.119448 0.505552
63 3 0.369281 0.00555152 0.505552
115 1 0.4375 0.1875 0.6875
207 3 0.369281 0.119448 0.619448
271 3 0.255719 0.00555152 0.619448
71 1 0.5625 0.0625 0.5625
73 3 0.630719 0.130552 0.630552
201 3 0.744281 0.244448 0.630552
310 3 0.630719 0.244448 0.744448
415 3 0.744281 0.130552 0.744448
375 2 0.625 0.25 0.625
133 1 0.9375 0.1875 0.6875
135 3 0.869281 0.119448 0.619448
199 3 0.755719 0.00555152 0.619448
248 2 0.75 0.125 0.625
249 3 0.869281 0.00555152 0.505552
255 3 0.755719 0.119448 0.505552
167 3 0.119281 0.255552 0.505552
176 1 0.1875 0.4375 0.6875
335 3 0.119281 0.369448 0.619448
344 3 0.00571895 0.255552 0.619448
350 3 0.00571895 0.369448 0.505552
98 3 0.494281 0.380552 0.744448
230 3 0.380719 0.494448 0.744448
275 1 0.3125 0.3125 0.5625
326 3 0.380719 0.380552 0.630552
390 3 0.494281 0.494448 0.630552
54 2 0.5 0.375 0.625
97 2 0.375 0.5 0.625
55 3 0.619281 0.255552 0.505552
117 3 0.505719 0.255552 0.619448
141 1 0.6875 0.4375 0.6875
143 3 0.619281 0.369448 0.619448
376 3 0.505719 0.369448 0.505552
166 2 1 0.375 0.625
150 1 0.8125 0.3125 0.5625
299 3 0.880719 0.494448 0.744448
329 3 0.994281 0.494448 0.630552
340 3 0.994281 0.380552 0.744448
358 3 0.880719 0.380552 0.630552
43 2 0.875 0.5 0.625
86 1 0.0625 0.5625 0.5625
88 3 0.130719 0.630552 0.630552
157 3 0.244281 0.630552 0.744448
216 3 0.244281 0.744448 0.630552
394 3 0.130719 0.744448 0.744448
393 2 0.25 0.625 0.625
185 3 0.255719 0.505552 0.619448
260 3 0.255719 0.619448 0.505552
266 1 0.4375 0.6875 0.6875
399 3 0.369281 0.619448 0.619448
412 3 0.369281 0.505552 0.505552
190 1 0.5625 0.5625 0.5625
191 3 0.630719 0.630552 0.630552
388 3 0.744281 0.630552 0.744448
430 3 0.630719 0.744448 0.744448
432 3 0.744281 0.744448 0.630552
44 3 0.755719 0.619448 0.505552
124 1 0.9375 0.6875 0.6875
347 3 0.755719 0.505552 0.619448
423 3 0.869281 0.619448 0.619448
429 2 0.75 0.625 0.625
446 3 0.869281 0.505552 0.505552
125 3 0.00571895 0.755552 0.619448
156 2 0.125 0.75 0.625
164 1 0.1875 0.9375 0.6875
311 3 0.119281 0.755552 0.505552
316 3 0.00571895 0.869448 0.505552
324 3 0.119281 0.869448 0.619448
28 2 0.375 1 0.625
159 3 0.494281 0.880552 0.744448
162 1 0.3125 0.8125 0.5625
193 3 0.380719 0.880552 0.630552
274 3 0.380719 0.994448 0.744448
295 3 0.494281 0.994448 0.630552
182 2 0.5 0.875 0.625
183 3 0.619281 0.755552 0.505552
198 1 0.6875 0.9375 0.6875
209 3 0.619281 0.869448 0.619448
267 3 0.505719 0.755552 0.619448
387 2 0.625 0.75 0.625
402 3 0.505719 0.869448 0.505552
254 2 0.875 1 0.625
217 2 1 0.875 0.625
218 3 0.880719 0.994448 0.744448
227 1 0.8125 0.8125 0.5625
282 3 0.994281 0.880552 0.744448
290 3 0.880719 0.880552 0.630552
398 3 0.994281 0.994448 0.630552
165 3 0.119281 0.00555152 0.755552
171 3 0.00571895 0.119448 0.755552
272 1 0.1875 0.1875 0.9375
289 2 -1.10315e-14 -1.09179e-14 0.75
338 3 0.119281 0.119448 0.869448
367 2 0.125 0.125 0.75
417 3 0.00571895 0.00555152 0.869448
20 2 0.25 0.25 0.75
303 2 0.5 0.25 1
93 3 0.380719 0.244448 0.994448
105 1 0.3125 0.0625 0.8125
323 3 0.380719 0.130552 0.880552
346 3 0.494281 0.130552 0.994448
348 3 0.494281 0.244448 0.880552
92 2 0.5 0.125 0.875
177 2 0.375 0.25 0.875
99 1 0.6875 0.1875 0.9375
200 2 0.625 0.125 0.75
283 3 0.619281 0.00555152 0.755552
328 3 0.505719 0.119448 0.755552
341 3 0.505719 0.00555152 0.869448
352 3 0.619281 0.119448 0.869448
186 2 0.875 0.125 1
31 2 1 0.125 0.875
32 3 0.880719 0.244448 0.994448
187 3 0.994281 0.244448 0.880552
210 1 0.8125 0.0625 0.8125
212 3 0.880719 0.130552 0.880552
380 3 0.994281 0.130552 0.994448
72 2 0.75 0.25 0.75
379 2 0.875 0.25 0.875
239 2 0.125 0.375 1
41 3 0.130719 0.494448 0.994448
52 3 0.244281 0.380552 0.994448
136 1 0.0625 0.3125 0.8125
138 3 0.130719 0.380552 0.880552
268 3 0.244281 0.494448 0.880552
51 2 0.125 0.5 0.875
137 2 0.25 0.5 1
40 2 0.25 0.375 0.875
19 1 0.4375 0.4375 0.9375
21 3 0.369281 0.369448 0.869448
178 3 0.255719 0.369448 0.755552
333 3 0.369281 0.255552 0.755552
389 2 0.375 0.375 0.75
405 3 0.255719 0.255552 0.869448
305 2 0.5 0.5 0.75
11 2 0.625 0.375 1
96 1 0.5625 0.3125 0.8125
127 3 0.744281 0.494448 0.880552
205 3 0.630719 0.380552 0.880552
244 3 0.744281 0.380552 0.994448
259 3 0.630719 0.494448 0.994448
243 2 0.625 0.5 0.875
128 2 0.875 0.375 0.75
129 3 0.755719 0.255552 0.869448
258 2 0.75 0.375 0.875
278 1 0.9375 0.4375 0.9375
294 3 0.869281 0.255552 0.755552
422 3 0.869281 0.369448 0.869448
426 3 0.755719 0.369448 0.755552
119 2 1 0.5 0.75
118 1 0.1875 0.6875 0.9375
120 3 0.119281 0.619448 0.869448
215 2 0.125 0.625 0.75
226 3 0.00571895 0.619448 0.755552
277 3 0.119281 0.505552 0.755552
279 3 0.00571895 0.505552 0.869448
14 2 0.375 0.625 1
155 1 0.3125 0.5625 0.8125
197 3 0.494281 0.744448 0.880552
313 3 0.380719 0.744448 0.994448
318 3 0.494281 0.630552 0.994448
336 3 0.380719 0.630552 0.880552
148 2 0.5 0.625 0.875
149 3 0.619281 0.505552 0.755552
160 1 0.6875 0.6875 0.9375
298 3 0.505719 0.619448 0.755552
306 3 0.619281 0.619448 0.869448
431 2 0.625 0.625 0.75
440 3 0.505719 0.505552 0.869448
231 2 0.875 0.625 1
111 2 1 0.625 0.875
112 3 0.880719 0.744448 0.994448
126 1 0.8125 0.5625 0.8125
140 3 0.880719 0.630552 0.880552
270 3 0.994281 0.744448 0.880552
442 3 0.994281 0.630552 0.994448
113 2 0.125 0.875 1
170 2 0.125 1 0.875
114 3 0.244281 0.994448 0.880552
250 3 0.244281 0.880552 0.994448
269 1 0.0625 0.8125 0.8125
413 3 0.130719 0.994448 0.994448
424 3 0.130719 0.880552 0.880552
87 2 0.25 0.75 0.75
409 2 0.25 0.875 0.875
285 2 0.5 0.75 1
192 2 0.5 1 0.75
102 1 0.4375 0.9375 0.9375
146 2 0.375 0.875 0.75
147 3 0.255719 0.755552 0.869448
224 2 0.375 0.75 0.875
225 3 0.255719 0.869448 0.755552
364 3 0.369281 0.869448 0.869448
410 3 0.369281 0.755552 0.755552
84 2 0.625 0.875 1
65 2 0.625 1 0.875
66 3 0.744281 0.880552 0.994448
158 1 0.5625 0.8125 0.8125
343 3 0.744281 0.994448 0.880552
400 3 0.630719 0.880552 0.880552
447 3 0.630719 0.994448 0.994448
4 1 0.9375 0.9375 0.9375
5 2 0.75 0.75 0.75
6 3 0.869281 0.869448 0.869448
369 2 0.875 0.875 0.75
370 3 0.755719 0.755552 0.869448
383 2 0.75 0.875 0.875
384 3 0.869281 0.755552 0.755552
437 2 0.875 0.75 0.875
438 3 0.755719 0.869448 0.755552
ITEM: TIMESTEP
15000
ITEM: NUMBER OF ATOMS
448
ITEM: BOX BOUNDS pp pp pp
-2.1406408322389359e-01 1.6704064083223152e+01
-7.6750665054495570e-02 1.6566750665053235e+01
-7.6750665054497347e-02 1.6566750665053235e+01
ITEM: ATOMS id type xs ys zs
1 1 0.0625 0.0625 0.0625
3 3 0.129821 0.12962 0.12962
401 3 0.245179 0.12962 0.24538
439 3 0.245179 0.24538 0.12962
445 3 0.129821 0.24538 0.24538
385 2 0.125 0.25 0.125
433 2 0.125 0.125 0.25
427 2 0.25 0.125 0.125
2 2 0.25 0.25 0.25
10 1 0.4375 0.1875 0.1875
46 2 0.375 -9.00616e-15 0.125
75 2 0.375 0.125 1.07755e-14
76 3 0.254821 0.00462028 0.12038
339 3 0.254821 0.12038 0.00462028
354 3 0.370179 0.12038 0.12038
428 3 0.370179 0.00462028 0.00462028
130 1 0.5625 0.0625 0.0625
280 3 0.745179 0.24538 0.12962
315 3 0.745179 0.12962 0.24538
363 3 0.629821 0.12962 0.12962
411 3 0.629821 0.24538 0.24538
153 2 0.625 0.25 0.125
213 2 0.625 0.125 0.25
101 3 0.754821 0.12038 0.00462028
238 1 0.9375 0.1875 0.1875
264 3 0.754821 0.00462028 0.12038
361 2 0.75 -1.35689e-14 -1.80065e-14
362 3 0.870179 0.12038 0.12038
395 2 0.75 0.125 0.125
396 3 0.870179 0.00462028 0.00462028
211 2 1 0.25 3.35282e-15
90 2 0.75 0.25 0.25
13 1 0.1875 0.4375 0.1875
240 3 0.00482141 0.25462 0.12038
273 3 0.120179 0.25462 0.00462028
386 3 0.00482141 0.37038 0.00462028
444 3 0.120179 0.37038 0.12038
50 1 0.3125 0.3125 0.0625
253 3 0.495179 0.37962 0.24538
312 3 0.379821 0.49538 0.24538
337 3 0.379821 0.37962 0.12962
372 3 0.495179 0.49538 0.12962
219 2 0.5 0.375 0.125
252 2 0.375 0.5 0.125
371 2 0.375 0.375 0.25
291 2 0.5 0.5 0.25
12 3 0.504821 0.25462 0.12038
33 1 0.6875 0.4375 0.1875
154 3 0.504821 0.37038 0.00462028
220 3 0.620179 0.25462 0.00462028
304 3 0.620179 0.37038 0.12038
180 2 1 0.375 0.125
26 3 0.995179 0.37962 0.24538
30 1 0.8125 0.3125 0.0625
145 3 0.995179 0.49538 0.12962
181 3 0.879821 0.49538 0.24538
351 3 0.879821 0.37962 0.12962
25 2 0.875 0.5 0.125
204 2 0.75 0.5 -1.44002e-15
144 2 0.875 0.375 0.25
195 2 1 0.5 0.25
39 1 0.0625 0.5625 0.0625
246 3 0.129821 0.74538 0.24538
342 3 0.245179 0.74538 0.12962
374 3 0.245179 0.62962 0.24538
421 3 0.129821 0.62962 0.12962
202 2 0.125 0.625 0.25
245 2 0.25 0.625 0.125
15 3 0.254821 0.50462 0.12038
83 1 0.4375 0.6875 0.1875
281 3 0.254821 0.62038 0.00462028
309 3 0.370179 0.50462 0.00462028
331 3 0.370179 0.62038 0.12038
22 1 0.5625 0.5625 0.0625
24 3 0.629821 0.62962 0.12962
60 3 0.629821 0.74538 0.24538
349 3 0.745179 0.62962 0.24538
418 3 0.745179 0.74538 0.12962
365 2 0.625 0.625 0.25
36 1 0.9375 0.6875 0.1875
59 2 0.75 0.625 0.125
161 3 0.754821 0.62038 0.00462028
232 3 0.754821 0.50462 0.12038
320 3 0.870179 0.62038 0.12038
322 3 0.870179 0.50462 0.00462028
74 1 0.1875 0.9375 0.1875
139 2 -1.74804e-14 0.75 -2.39975e-15
229 3 0.120179 0.75462 0.00462028
263 3 0.00482141 0.75462 0.12038
373 2 0.125 0.75 0.125
416 3 0.00482141 0.87038 0.00462028
419 3 0.120179 0.87038 0.12038
353 2 0.25 1 1.13901e-14
69 2 0.25 0.75 0.25
47 3 0.495179 0.87962 0.24538
121 1 0.3125 0.8125 0.0625
123 3 0.379821 0.87962 0.12962
132 3 0.495179 0.99538 0.12962
169 3 0.379821 0.99538 0.24538
168 2 0.5 0.875 0.125
122 2 0.5 1 0.25
131 2 0.375 0.875 0.25
85 3 0.504821 0.75462 0.12038
103 2 0.625 0.75 0.125
104 3 0.504821 0.87038 0.00462028
108 1 0.6875 0.9375 0.1875
286 3 0.620179 0.87038 0.12038
300 3 0.620179 0.75462 0.00462028
100 2 0.875 1 0.125
57 2 1 0.875 0.125
58 3 0.879821 0.99538 0.24538
64 1 0.8125 0.8125 0.0625
261 3 0.995179 0.87962 0.24538
308 3 0.879821 0.87962 0.12962
406 3 0.995179 0.99538 0.12962