 # Lithium Manganese Oxide (0.28/2/4) - Li0.28 Mn2 O4
 
          56  atoms
           3  atom types
 
      0.000000000000       8.043000000000  xlo xhi
      0.000000000000       8.043000000000  ylo yhi
      0.000000000000       8.043000000000  zlo zhi
 
Masses
 
            1   6.94000000              # Li
            2   54.93804500             # Mn
            3   15.99900000             # O
 
Atoms # charge
 
         1    1          1.005375000000       1.005375000000       1.005375000000
         2    2          4.021500000000       4.021500000000       4.021500000000
         3    3          2.110483200000       2.110483200000       2.110483200000
         4    1          7.037625000000       3.016125000000       3.016125000000
         5    2          4.021500000000       6.032250000000       6.032250000000
         6    3          5.932516800000       4.121233200000       4.121233200000
         7    1          5.026875000000       1.005375000000       5.026875000000
         8    2          2.010750000000       6.032250000000       0.000000000000
         9    3          3.921766800000       7.943266800000       6.131983200000
        10    1          7.037625000000       7.037625000000       7.037625000000
        11    2          2.010750000000       4.021500000000       2.010750000000
        12    3          0.099733200000       5.932516800000       0.099733200000
        13    3          2.110483200000       7.943266800000       7.943266800000
        14    3          5.932516800000       5.932516800000       5.932516800000
        15    3          3.921766800000       2.110483200000       3.921766800000
        16    3          0.099733200000       4.121233200000       1.911016800000
        17    1          3.016125000000       7.037625000000       3.016125000000
        18    2          6.032250000000       4.021500000000       6.032250000000
        19    3          4.121233200000       5.932516800000       4.121233200000
        20    1          5.026875000000       5.026875000000       1.005375000000
        21    2          0.000000000000       2.010750000000       6.032250000000
        22    3          6.131983200000       3.921766800000       7.943266800000
        23    2          2.010750000000       2.010750000000       4.021500000000
        24    3          0.099733200000       0.099733200000       5.932516800000
        25    3          7.943266800000       2.110483200000       7.943266800000
        26    3          3.921766800000       3.921766800000       2.110483200000
        27    3          1.911016800000       0.099733200000       4.121233200000
        28    1          1.005375000000       5.026875000000       5.026875000000
        29    2          4.021500000000       0.000000000000       8.043000000000
        30    3          2.110483200000       6.131983200000       6.131983200000
        31    2          6.032250000000       2.010750000000       0.000000000000
        32    3          4.121233200000       0.099733200000       1.911016800000
        33    3          5.932516800000       1.911016800000       1.911016800000
        34    3          7.943266800000       3.921766800000       6.131983200000
        35    2          2.010750000000       8.043000000000       6.032250000000
        36    3          3.921766800000       6.131983200000       7.943266800000
        37    1          3.016125000000       3.016125000000       7.037625000000
        38    2          0.000000000000       0.000000000000       4.021500000000
        39    3          1.911016800000       1.911016800000       5.932516800000
        40    2          6.032250000000       6.032250000000       4.021500000000
        41    3          7.943266800000       7.943266800000       2.110483200000
        42    3          0.099733200000       1.911016800000       4.121233200000
        43    3          4.121233200000       4.121233200000       5.932516800000
        44    3          6.131983200000       6.131983200000       2.110483200000
        45    2          0.000000000000       6.032250000000       2.010750000000
        46    3          1.911016800000       4.121233200000       0.099733200000
        47    2          6.032250000000       8.043000000000       2.010750000000
        48    3          7.943266800000       6.131983200000       3.921766800000
        49    3          6.131983200000       7.943266800000       3.921766800000
        50    3          4.121233200000       1.911016800000       0.099733200000
        51    2          0.000000000000       4.021500000000       0.000000000000
        52    3          1.911016800000       5.932516800000       1.911016800000
        53    3          6.131983200000       2.110483200000       6.131983200000
        54    2          4.021500000000       2.010750000000       2.010750000000
        55    3          2.110483200000       3.921766800000       3.921766800000
        56    3          5.932516800000       0.099733200000       0.099733200000
