 # Lithium manganese oxide (1/1.98/4) - Li1.08 Mn1.98 O4
 
          56  atoms
           3  atom types
 
      0.000000000000       8.244900000000  xlo xhi
      0.000000000000       8.244900000000  ylo yhi
      0.000000000000       8.244900000000  zlo zhi
 
Masses
 
            1   6.94000000              # Li
            2   54.93804500             # Mn
            3   15.99900000             # O
 
Atoms # charge
 
         1    1          1.030612500000       1.030612500000       1.030612500000
         2    2          4.122450000000       4.122450000000       4.122450000000
         3    3          2.170057680000       2.170057680000       2.170057680000
         4    2          4.122450000000       6.183675000000       6.183675000000
         5    3          2.170057680000       8.136067320000       8.136067320000
         6    2          6.183675000000       4.122450000000       6.183675000000
         7    3          8.136067320000       2.170057680000       8.136067320000
         8    2          6.183675000000       6.183675000000       4.122450000000
         9    3          8.136067320000       8.136067320000       2.170057680000
        10    1          7.214287500000       7.214287500000       7.214287500000
        11    3          6.074842320000       6.074842320000       6.074842320000
        12    2          4.122450000000       2.061225000000       2.061225000000
        13    3          6.074842320000       0.108832680000       0.108832680000
        14    2          2.061225000000       4.122450000000       2.061225000000
        15    3          0.108832680000       6.074842320000       0.108832680000
        16    2          2.061225000000       2.061225000000       4.122450000000
        17    3          0.108832680000       0.108832680000       6.074842320000
        18    1          1.030612500000       5.153062500000       5.153062500000
        19    3          2.170057680000       4.013617320000       4.013617320000
        20    2          4.122450000000       0.000000000000       0.000000000000
        21    3          2.170057680000       6.292507680000       6.292507680000
        22    2          6.183675000000       2.061225000000       0.000000000000
        23    3          8.136067320000       4.013617320000       6.292507680000
        24    2          6.183675000000       0.000000000000       2.061225000000
        25    3          8.136067320000       6.292507680000       4.013617320000
        26    1          5.153062500000       1.030612500000       5.153062500000
        27    3          4.013617320000       2.170057680000       4.013617320000
        28    2          2.061225000000       6.183675000000       0.000000000000
        29    3          4.013617320000       8.136067320000       6.292507680000
        30    2          8.244900000000       4.122450000000       0.000000000000
        31    3          6.292507680000       2.170057680000       6.292507680000
        32    2          8.244900000000       6.183675000000       2.061225000000
        33    3          6.292507680000       8.136067320000       4.013617320000
        34    1          7.214287500000       3.091837500000       3.091837500000
        35    3          0.108832680000       4.231282680000       1.952392320000
        36    2          2.061225000000       0.000000000000       6.183675000000
        37    3          0.108832680000       1.952392320000       4.231282680000
        38    3          6.074842320000       4.231282680000       4.231282680000
        39    3          6.074842320000       1.952392320000       1.952392320000
        40    1          5.153062500000       5.153062500000       1.030612500000
        41    3          4.013617320000       4.013617320000       2.170057680000
        42    3          4.013617320000       6.292507680000       8.136067320000
        43    2          8.244900000000       2.061225000000       6.183675000000
        44    3          6.292507680000       4.013617320000       8.136067320000
        45    2          8.244900000000       0.000000000000       4.122450000000
        46    3          6.292507680000       6.292507680000       2.170057680000
        47    1          3.091837500000       7.214287500000       3.091837500000
        48    3          1.952392320000       0.108832680000       4.231282680000
        49    3          1.952392320000       6.074842320000       1.952392320000
        50    3          4.231282680000       0.108832680000       1.952392320000
        51    3          4.231282680000       6.074842320000       4.231282680000
        52    1          3.091837500000       3.091837500000       7.214287500000
        53    3          4.231282680000       4.231282680000       6.074842320000
        54    3          1.952392320000       1.952392320000       6.074842320000
        55    3          4.231282680000       1.952392320000       0.108832680000
        56    3          1.952392320000       4.231282680000       0.108832680000
