 # Lithium Manganese Oxide (1.13/2/4) - Li1.13 Mn2 O4
 
          32  atoms
           3  atom types
 
      0.000000000000       8.269200000000  xlo xhi
      0.000000000000       8.246800000000  ylo yhi
      0.000000000000       8.220500000000  zlo zhi
 
Masses
 
            1   6.94000000              # Li
            2   54.93804500             # Mn
            3   15.99900000             # O
 
Atoms # charge
 
         1    1   1.000000        1.033650000000       1.030850000000       1.027562500000
         2    2   3.435000        4.134600000000       4.123400000000       4.110250000000
         3    3  -2.000000        2.125184400000       2.201895600000       2.120889000000
         4    1   1.000000        7.235550000000       7.215950000000       1.027562500000
         5    3  -2.000000        6.144015600000       6.044904400000       2.120889000000
         6    1   1.000000        7.235550000000       1.030850000000       7.192937500000
         7    3  -2.000000        6.144015600000       2.201895600000       6.099611000000
         8    1   1.000000        1.033650000000       7.215950000000       7.192937500000
         9    3  -2.000000        2.125184400000       6.044904400000       6.099611000000
        10    2   3.435000        6.201900000000       6.185100000000       6.165375000000
        11    3  -2.000000        8.211315600000       8.106604400000       8.154736000000
        12    1   1.000000        3.100950000000       3.092550000000       1.027562500000
        13    3  -2.000000        4.192484400000       4.263595600000       8.154736000000
        14    1   1.000000        3.100950000000       1.030850000000       3.082687500000
        15    3  -2.000000        4.192484400000       8.106604400000       4.176014000000
        16    1   1.000000        1.033650000000       3.092550000000       3.082687500000
        17    3  -2.000000        8.211315600000       4.263595600000       4.176014000000
        18    2   3.435000        0.000000000000       0.000000000000       4.110250000000
        19    1   1.000000        5.168250000000       5.154250000000       1.027562500000
        20    1   1.000000        5.168250000000       3.092550000000       7.192937500000
        21    1   1.000000        3.100950000000       5.154250000000       7.192937500000
        22    2   3.435000        0.000000000000       4.123400000000       0.000000000000
        23    1   1.000000        5.168250000000       7.215950000000       3.082687500000
        24    1   1.000000        5.168250000000       1.030850000000       5.137812500000
        25    1   1.000000        3.100950000000       7.215950000000       5.137812500000
        26    2   3.435000        2.067300000000       2.061700000000       6.165375000000
        27    1   1.000000        7.235550000000       5.154250000000       3.082687500000
        28    2   3.435000        4.134600000000       0.000000000000       0.000000000000
        29    1   1.000000        7.235550000000       3.092550000000       5.137812500000
        30    1   1.000000        1.033650000000       5.154250000000       5.137812500000
        31    2   3.435000        2.067300000000       6.185100000000       2.055125000000
        32    2   3.435000        6.201900000000       2.061700000000       2.055125000000
