 # Lithium Manganese Oxide (2/2/4) - Li2 Mn2 O4
 
          20  atoms
           3  atom types
 
      0.000000000000       5.662000000000  xlo xhi
      0.000000000000       5.662000000000  ylo yhi
      0.000000000000       9.274000000000  zlo zhi
 
Masses
 
            1   6.94000000              # Li
            2   54.93804500             # Mn
            3   15.99900000             # O
 
Atoms # charge
 
         1    1          0.000000000000       4.246500000000       1.159250000000
         2    1          0.000000000000       0.000000000000       0.000000000000
         3    2          0.000000000000       0.000000000000       4.637000000000
         4    3          0.000000000000       2.757394000000       2.337048000000
         5    1          2.831000000000       4.246500000000       5.796250000000
         6    1          2.831000000000       2.831000000000       4.637000000000
         7    2          2.831000000000       2.831000000000       0.000000000000
         8    3          2.831000000000       0.073606000000       6.974048000000
         9    1          1.415500000000       2.831000000000       3.477750000000
        10    1          0.000000000000       2.831000000000       2.318500000000
        11    2          0.000000000000       2.831000000000       6.955500000000
        12    3          2.904606000000       2.831000000000       4.655548000000
        13    1          1.415500000000       0.000000000000       8.114750000000
        14    1          2.831000000000       0.000000000000       6.955500000000
        15    2          2.831000000000       0.000000000000       2.318500000000
        16    3          5.588394000000       0.000000000000       0.018548000000
        17    1          4.246500000000       0.000000000000       8.114750000000
        18    1          4.246500000000       2.831000000000       3.477750000000
        19    1          0.000000000000       1.415500000000       1.159250000000
        20    1          2.831000000000       1.415500000000       5.796250000000
