 # Lithium Dimanganese Tetraoxide - Li Mn2 O4
 
          56  atoms
           3  atom types
 
      0.000000000000       8.245000000000  xlo xhi
      0.000000000000       8.245000000000  ylo yhi
      0.000000000000       8.245000000000  zlo zhi
 
Masses
 
            1   6.94000000              # Li
            2   54.93804500             # Mn
            3   15.99900000             # O
 
Atoms # charge
 
         1    1   1.000000        1.030625000000       1.030625000000       1.030625000000
         2    2   3.500000        4.122500000000       4.122500000000       4.122500000000
         3    3  -2.000000        2.151945000000       2.151945000000       2.151945000000
         4    1   1.000000        7.214375000000       3.091875000000       3.091875000000
         5    2   3.500000        4.122500000000       6.183750000000       6.183750000000
         6    3  -2.000000        6.093055000000       4.213195000000       4.213195000000
         7    1   1.000000        5.153125000000       1.030625000000       5.153125000000
         8    2   3.500000        2.061250000000       6.183750000000       0.000000000000
         9    3  -2.000000        4.031805000000       8.154305000000       6.274445000000
        10    1   1.000000        7.214375000000       7.214375000000       7.214375000000
        11    2   3.500000        2.061250000000       4.122500000000       2.061250000000
        12    3  -2.000000        0.090695000000       6.093055000000       0.090695000000
        13    3  -2.000000        2.151945000000       8.154305000000       8.154305000000
        14    3  -2.000000        6.093055000000       6.093055000000       6.093055000000
        15    3  -2.000000        4.031805000000       2.151945000000       4.031805000000
        16    3  -2.000000        0.090695000000       4.213195000000       1.970555000000
        17    1   1.000000        3.091875000000       7.214375000000       3.091875000000
        18    2   3.500000        6.183750000000       4.122500000000       6.183750000000
        19    3  -2.000000        4.213195000000       6.093055000000       4.213195000000
        20    1   1.000000        5.153125000000       5.153125000000       1.030625000000
        21    2   3.500000        0.000000000000       2.061250000000       6.183750000000
        22    3  -2.000000        6.274445000000       4.031805000000       8.154305000000
        23    2   3.500000        2.061250000000       2.061250000000       4.122500000000
        24    3  -2.000000        0.090695000000       0.090695000000       6.093055000000
        25    3  -2.000000        8.154305000000       2.151945000000       8.154305000000
        26    3  -2.000000        4.031805000000       4.031805000000       2.151945000000
        27    3  -2.000000        1.970555000000       0.090695000000       4.213195000000
        28    1   1.000000        1.030625000000       5.153125000000       5.153125000000
        29    2   3.500000        4.122500000000       0.000000000000       8.245000000000
        30    3  -2.000000        2.151945000000       6.274445000000       6.274445000000
        31    2   3.500000        6.183750000000       2.061250000000       0.000000000000
        32    3  -2.000000        4.213195000000       0.090695000000       1.970555000000
        33    3  -2.000000        6.093055000000       1.970555000000       1.970555000000
        34    3  -2.000000        8.154305000000       4.031805000000       6.274445000000
        35    2   3.500000        2.061250000000       8.245000000000       6.183750000000
        36    3  -2.000000        4.031805000000       6.274445000000       8.154305000000
        37    1   1.000000        3.091875000000       3.091875000000       7.214375000000
        38    2   3.500000        0.000000000000       0.000000000000       4.122500000000
        39    3  -2.000000        1.970555000000       1.970555000000       6.093055000000
        40    2   3.500000        6.183750000000       6.183750000000       4.122500000000
        41    3  -2.000000        8.154305000000       8.154305000000       2.151945000000
        42    3  -2.000000        0.090695000000       1.970555000000       4.213195000000
        43    3  -2.000000        4.213195000000       4.213195000000       6.093055000000
        44    3  -2.000000        6.274445000000       6.274445000000       2.151945000000
        45    2   3.500000        0.000000000000       6.183750000000       2.061250000000
        46    3  -2.000000        1.970555000000       4.213195000000       0.090695000000
        47    2   3.500000        6.183750000000       8.245000000000       2.061250000000
        48    3  -2.000000        8.154305000000       6.274445000000       4.031805000000
        49    3  -2.000000        6.274445000000       8.154305000000       4.031805000000
        50    3  -2.000000        4.213195000000       1.970555000000       0.090695000000
        51    2   3.500000        0.000000000000       4.122500000000       0.000000000000
        52    3  -2.000000        1.970555000000       6.093055000000       1.970555000000
        53    3  -2.000000        6.274445000000       2.151945000000       6.274445000000
        54    2   3.500000        4.122500000000       2.061250000000       2.061250000000
        55    3  -2.000000        2.151945000000       4.031805000000       4.031805000000
        56    3  -2.000000        6.093055000000       0.090695000000       0.090695000000
