 # Li0.511 Mn2 O4
 
          32  atoms
           3  atom types
 
      0.000000000000       8.157000000000  xlo xhi
      0.000000000000       8.157000000000  ylo yhi
      0.000000000000       8.157000000000  zlo zhi
 
Masses
 
            1   6.94000000              # Li
            2   54.93804500             # Mn
            3   15.99900000             # O
 
Atoms # charge
 
         1    1          0.000000000000       0.000000000000       0.000000000000
         2    2          5.098125000000       5.098125000000       5.098125000000
         3    3          3.151864800000       3.151864800000       3.151864800000
         4    1          0.000000000000       2.039250000000       2.039250000000
         5    2          3.058875000000       7.137375000000       7.137375000000
         6    3          5.005135200000       5.191114800000       5.191114800000
         7    1          6.117750000000       2.039250000000       4.078500000000
         8    2          1.019625000000       5.098125000000       1.019625000000
         9    3          2.965885200000       7.044385200000       7.230364800000
        10    1          6.117750000000       0.000000000000       6.117750000000
        11    2          3.058875000000       3.058875000000       3.058875000000
        12    3          1.112614800000       5.005135200000       1.112614800000
        13    1          2.039250000000       0.000000000000       2.039250000000
        14    2          7.137375000000       3.058875000000       7.137375000000
        15    1          4.078500000000       6.117750000000       2.039250000000
        16    2          1.019625000000       1.019625000000       5.098125000000
        17    3          7.230364800000       2.965885200000       7.044385200000
        18    1          6.117750000000       6.117750000000       0.000000000000
        19    3          1.112614800000       1.112614800000       5.005135200000
        20    1          0.000000000000       4.078500000000       4.078500000000
        21    2          5.098125000000       1.019625000000       1.019625000000
        22    1          2.039250000000       6.117750000000       4.078500000000
        23    3          5.191114800000       1.112614800000       0.926635200000
        24    1          6.117750000000       4.078500000000       2.039250000000
        25    1          4.078500000000       4.078500000000       0.000000000000
        26    2          7.137375000000       7.137375000000       3.058875000000
        27    1          2.039250000000       2.039250000000       0.000000000000
        28    3          7.044385200000       7.044385200000       3.151864800000
        29    1          4.078500000000       2.039250000000       6.117750000000
        30    1          2.039250000000       4.078500000000       6.117750000000
        31    1          4.078500000000       0.000000000000       4.078500000000
        32    1          0.000000000000       6.117750000000       6.117750000000
