LAMMPS (30 Jul 2021)
OMP_NUM_THREADS environment is not set. Defaulting to 1 thread. (src/comm.cpp:98)
  using 1 OpenMP thread(s) per MPI task
# LMO uniaxial tensile test, Prateek Gandhi, October 2021.

##---------------INITIALIZATION-------------------------------

units          metal
dimension 	    3
boundary       p p p
atom_style 	atomic
newton 		on


##---------------ATOM DEFINITION------------------------------

read_data 	1514019.lmp
Reading data file ...
  orthogonal box = (0.0000000 0.0000000 0.0000000) to (8.1570000 8.1570000 8.1570000)
  1 by 1 by 1 MPI processor grid
  reading atoms ...
  32 atoms
  read_data CPU = 0.000 seconds


##---------------FORCE FIELDS---------------------------------

pair_style 	meam
pair_coeff     * * library.meam Li Mn O library.meam_alloy Li Mn O


##---------------SETTINGS-------------------------------------

timestep 	0.0001
variable   ts equal 0.0001


##---------------COMPUTES-------------------------------------

compute 	1 all stress/atom NULL
compute    2 all reduce sum c_1[1] c_1[2]


variable   Lx equal lx
variable   Ly equal ly
variable   Lz equal lz
variable   Vol equal vol
variable   thickn equal 8.245
fix 1 all npt temp 300 300 1 iso 0 0 1 drag 1
thermo 	2000
##---------------RELAXATION--------------------------------------

run            50000
Neighbor list info ...
  update every 1 steps, delay 10 steps, check yes
  max neighbors/atom: 2000, page size: 100000
  master list distance cutoff = 6.8
  ghost atom cutoff = 6.8
  binsize = 3.4, bins = 3 3 3
  2 neighbor lists, perpetual/occasional/extra = 2 0 0
  (1) pair meam, perpetual
      attributes: full, newton on
      pair build: full/bin/atomonly
      stencil: full/bin/3d
      bin: standard
  (2) pair meam, perpetual, half/full from (1)
      attributes: half, newton on
      pair build: halffull/newton
      stencil: none
      bin: none
Per MPI rank memory allocation (min/avg/max) = 8.757 | 8.757 | 8.757 Mbytes
Step Temp E_pair E_mol TotEng Press Volume 
       0            0    4501.2062            0    4501.2062    1058449.3    542.73945 
    2000      7724.06   -20.631548            0    10.319259    6032.6037    5142.8248 
    4000    2777.2314    -27.76756            0   -16.639015    2104.5838    6165.5705 
    6000    2299.1768   -34.158755            0   -24.945805   -1889.2684    6778.5206 
    8000    4109.1299   -49.811793            0   -33.346245    -873.4301    7021.1412 
   10000    1690.5504   -77.805794            0   -71.031649    -1267.044    7995.3549 
   12000    10373.875   -112.65012            0   -71.081331    3770.9879    9021.7644 
   14000    4938.2046     -41.6963            0   -21.908595    781.37618    10014.896 
   16000    2022.1234   -40.985272            0   -32.882493    154.48815    15164.823 
   18000    1335.3641   -42.398995            0   -37.048105    97.656616    20801.447 
   20000    2523.5984   -39.656427            0   -29.544206    436.59689    27772.552 
   22000    1451.2961   -39.920499            0   -34.105062    210.25626     40055.89 
   24000    1375.6666   -41.270189            0   -35.757804    39.145326    48489.626 
   26000    941.85921   -40.756752            0   -36.982661    30.076585    53669.092 
   28000     1765.715   -39.871972            0   -32.796638     35.79745    64240.563 
   30000    1356.2994   -40.820527            0   -35.385748   -19.894409    88102.675 
   32000    1113.0796   -41.589031            0   -37.128849   -6.2258648    113705.19 
   34000    848.46719   -41.739103            0    -38.33924    10.763238    142579.06 
   36000    2466.3192    -37.87686            0    -27.99416    44.654088     175666.4 
   38000    1419.0897   -37.441185            0   -31.754801    17.461841    249887.73 
   40000    1178.7457   -38.828054            0   -34.104744    2.3392885    321011.31 
   42000    1136.7251   -38.333681            0    -33.77875   -8.1247421    408358.91 
   44000    1009.0279   -39.590597            0   -35.547357   -8.6361065    485905.15 
   46000     3480.349   -55.547518            0   -41.601536   -18.564901    554166.95 
   48000    4574.4747   -63.251581            0   -44.921366    10.172149    621336.28 
   50000     1392.927   -69.412645            0   -63.831096   -21.120787    790177.75 
Loop time of 5.3121 on 1 procs for 50000 steps with 32 atoms

Performance: 81.324 ns/day, 0.295 hours/ns, 9412.477 timesteps/s
81.8% CPU use with 1 MPI tasks x 1 OpenMP threads

MPI task timing breakdown:
Section |  min time  |  avg time  |  max time  |%varavg| %total
---------------------------------------------------------------
Pair    | 3.156      | 3.156      | 3.156      |   0.0 | 59.41
Neigh   | 0          | 0          | 0          |   0.0 |  0.00
Comm    | 0.062496   | 0.062496   | 0.062496   |   0.0 |  1.18
Output  | 0.015602   | 0.015602   | 0.015602   |   0.0 |  0.29
Modify  | 2.0468     | 2.0468     | 2.0468     |   0.0 | 38.53
Other   |            | 0.03125    |            |       |  0.59

Nlocal:        32.0000 ave          32 max          32 min
Histogram: 1 0 0 0 0 0 0 0 0 0
Nghost:        18.0000 ave          18 max          18 min
Histogram: 1 0 0 0 0 0 0 0 0 0
Neighs:        74.0000 ave          74 max          74 min
Histogram: 1 0 0 0 0 0 0 0 0 0
FullNghs:      148.000 ave         148 max         148 min
Histogram: 1 0 0 0 0 0 0 0 0 0

Total # of neighbors = 148
Ave neighs/atom = 4.6250000
Neighbor list builds = 464
Dangerous builds = 0


##---------------DEFORMATION--------------------------------------
unfix              1
reset_timestep     0
fix		1 all npt temp 300 300 1 y 0 0 1 z 0 0 1 drag 1
fix        2 all ave/time 1 100 100 c_2[1] c_2[2]
fix        3 all ave/time 1 100 100 v_Lx v_Ly v_Lz v_Vol
variable   srate equal 1.0e10
variable   srate1 equal "v_srate / 1.0e12"
fix		4 all deform 1 x erate ${srate1} units box remap x
fix		4 all deform 1 x erate 0.01 units box remap x
run            100
Per MPI rank memory allocation (min/avg/max) = 8.892 | 8.892 | 8.892 Mbytes
Step Temp E_pair E_mol TotEng Press Volume 
       0     1392.927   -69.412645            0   -63.831096   -21.120787    790177.75 
     100    1733.0969   -71.012925            0   -64.068294   -18.023706    790614.33 
Loop time of 0.015646 on 1 procs for 100 steps with 32 atoms

Performance: 55.222 ns/day, 0.435 hours/ns, 6391.418 timesteps/s
99.9% CPU use with 1 MPI tasks x 1 OpenMP threads

MPI task timing breakdown:
Section |  min time  |  avg time  |  max time  |%varavg| %total
---------------------------------------------------------------
Pair    | 0.015646   | 0.015646   | 0.015646   |   0.0 |100.00
Neigh   | 0          | 0          | 0          |   0.0 |  0.00
Comm    | 0          | 0          | 0          |   0.0 |  0.00
Output  | 0          | 0          | 0          |   0.0 |  0.00
Modify  | 0          | 0          | 0          |   0.0 |  0.00
Other   |            | 0          |            |       |  0.00

Nlocal:        32.0000 ave          32 max          32 min
Histogram: 1 0 0 0 0 0 0 0 0 0
Nghost:        18.0000 ave          18 max          18 min
Histogram: 1 0 0 0 0 0 0 0 0 0
Neighs:        74.0000 ave          74 max          74 min
Histogram: 1 0 0 0 0 0 0 0 0 0
FullNghs:      148.000 ave         148 max         148 min
Histogram: 1 0 0 0 0 0 0 0 0 0

Total # of neighbors = 148
Ave neighs/atom = 4.6250000
Neighbor list builds = 0
Dangerous builds = 0
##---------------THERMO-OUTPUTS--------------------------------------
variable   CorVol equal f_3[4]*v_thickn/(f_3[3])
variable   ConvoFac equal 1/1.0e4
variable   sigmaxx equal f_2[1]*v_ConvoFac/v_CorVol
variable   sigmayy equal f_2[2]*v_ConvoFac/v_CorVol
variable   StrainPerTs equal v_srate1*v_ts
variable   strain equal v_StrainPerTs*step
thermo 	100
thermo_style custom step temp v_strain v_sigmaxx v_sigmayy pe ke lx ly vol


##---------------DEFORMATION--------------------------------------
dump           1 all atom 5000 tensile_test2.lammpstrj
run            500000
Per MPI rank memory allocation (min/avg/max) = 9.642 | 9.642 | 9.642 Mbytes
Step Temp v_strain v_sigmaxx v_sigmayy PotEng KinEng Lx Ly Volume 
     100    1733.0969       0.0001 -0.00088895546 0.0018535429   -71.012925     6.944631    92.459533     92.45556    790614.33 
     200    5070.8484       0.0002 -0.0030529981 -0.010622612   -84.343261    20.319216    92.468779    92.482069    791710.77 
     300    15820.152       0.0003 -0.0062449402 -0.0073935639   -128.31061    63.392369    92.478024    92.551301    793388.51 
     400    5977.5233       0.0004 -5.0037022e-05 -0.0089763246   -88.704934    23.952321     92.48727     92.65378    795592.22 
     500    1437.1471       0.0005 0.0002222365 0.0042082389   -70.696043    5.7587412    92.496516    92.775427    798093.57 
     600    2054.5456       0.0006 0.0022547378 0.0032990079    -73.47609    8.2326966    92.505762    92.898271    800585.68 
     700    11857.171       0.0007   0.00180673 -0.0030744774   -113.23544    47.512449    92.515008    93.023134    802934.48 
     800    3261.8722       0.0008 -0.00078907017 -0.0017243446     -80.4079    13.070532    92.524254    93.162114    805199.34 
     900    2671.7971       0.0009 0.0066486963 0.0045873645   -78.677576    10.706063      92.5335    93.297183    807248.87 
    1000    7110.9676        0.001 -0.0066057427 -0.0065718222   -97.169913    28.494106    92.542746    93.435821    809064.14 
    1100    1999.0422       0.0011 -0.0018942731 -0.00092032494     -77.2421     8.010291    92.551992    93.596705    810914.86 
    1200    5738.5385       0.0012 -0.00033286324 -0.0052385591   -92.806662    22.994694    92.561238    93.772663    812994.51 
    1300    4146.8079       0.0013 0.0058047046  0.004167628   -87.125826    16.616527    92.570484     93.94302    815141.35 
    1400    1480.5791       0.0014 -0.008610596 0.0028005587   -77.300423    5.9327758     92.57973    94.103684    817098.38 
    1500    11884.309       0.0015 -0.0089033736 -0.0037249267   -119.57909    47.621191    92.588976    94.269034    818874.91 
    1600    4664.6664       0.0016 0.00044946137 -0.0014472174   -91.207911    18.691619    92.598222    94.450872    820809.84 
    1700     1100.109       0.0017 0.0008294245 -0.0054043167   -77.657861    4.4082078    92.607468    94.657006    823423.62 
    1800    2084.9625       0.0018 -0.0086541748 -0.0014832384   -82.360246    8.3545792    92.616714    94.875296    826405.24 
    1900    5915.9851       0.0019 0.0031993016 0.0021358607   -97.794799    23.705734     92.62596     95.09797    829551.91 
    2000    14957.087        0.002 -0.0055369203   0.00611707   -135.43892    59.934011    92.635206    95.299243    832567.25 
    2100    8055.7445       0.0021 -0.0019678011 -0.0008808482   -107.14806    32.279888    92.644452    95.488279     835446.7 
    2200    4649.5117       0.0022 -0.00043762735 -0.0037369177   -94.102995    18.630893    92.653698    95.702966    838754.37 
    2300    5574.4718       0.0023 0.0054419877 -8.7860143e-05   -99.710059    22.337268    92.662944    95.934164    842586.19 
    2400    11154.186       0.0024 0.0071148116 -0.0047857922    -124.0245    44.695541    92.672189    96.173904    846925.75 
    2500    6094.4291       0.0025 0.0021283398 -0.0051767777   -104.19627    24.420771    92.681435    96.434482    851721.85 
    2600    1122.5302       0.0026 -0.00070183154 -0.005368379   -84.964009    4.4980508    92.690681    96.727067    856747.44 
    2700    1839.9285       0.0027 -0.0049503985 -0.010584307   -86.990242     7.372712    92.699927    97.052988    861818.56 
    2800    5603.0053       0.0028 -0.0025062632 -0.008734048   -100.96047    22.451603    92.709173    97.437593    867287.41 
    2900    13691.893       0.0029 0.0044020386  0.001561704   -135.63453    54.864298    92.718419    97.837696    872840.91 
    3000    4972.6236        0.003 0.0058884466 0.00098745996   -99.649257    19.925624    92.727665    98.221029    878276.69 
    3100    972.26746       0.0031 0.0029435157  0.011120004   -84.313953    3.8959384    92.736911    98.570519    883438.28 
    3200    2680.1319       0.0032 0.0032563947 0.0071194103   -91.151806    10.739462    92.746157     98.88139    888268.52 
    3300    1683.7052       0.0033 -0.0029750491 -0.0026245156   -78.728632    6.7467154    92.755403    99.176161    892858.89 
    3400    15694.046       0.0034 -0.00048087132 -0.0054885695   -137.04326    62.887055    92.764649    99.477706     897547.9 
    3500    2114.8837       0.0035 -0.005723527 0.0061821522   -82.232034    8.4744755    92.773895    99.797097    902506.19 
    3600    855.84157       0.0036 -0.0030261351 -0.0014822564   -79.474911    3.4294124    92.783141    100.10431    907524.59 
    3700    747.79975       0.0037 -0.003672824 -0.00015689059   -79.657421    2.9964818    92.792387    100.41336    912869.58 
    3800    699.97588       0.0038 -0.005339643 0.0013631834   -80.687218    2.8048485    92.801633    100.71065     918565.8 
    3900    746.13611       0.0039 -0.004141667 0.0039142037   -80.247955    2.9898155    92.810879     100.9957    924581.97 
    4000    843.25158        0.004 -0.004064609 -0.0029832981   -81.308906    3.3789634    92.820125    101.28071    930869.06 
    4100     868.5061       0.0041 -0.0041454886 -0.0051099555   -80.996251      3.48016    92.829371    101.58176    937670.93 
    4200    646.51618       0.0042 0.0016065532 -0.00040051446   -81.805913     2.590632    92.838617    101.90709    945151.02 
    4300    2191.3867       0.0043  0.012309669 -0.00042585227   -89.095349    8.7810278    92.847863    102.23611    953317.98 
    4400    6945.7199       0.0044 0.0047799627 -0.0064630112   -108.00516    27.831948    92.857109    102.58411    961525.34 
    4500    10495.426       0.0045  0.002686875 -0.0069139039   -122.43178    42.055851    92.866355    102.95434    969556.04 
    4600    2966.4812       0.0046 -0.0037058746 0.0002308067   -89.802139    11.886882      92.8756      103.343     977568.8 
    4700    1648.8886       0.0047 -0.0032508099 -0.0016499478   -86.599226    6.6072031    92.884846    103.73731    985672.22 
    4800    914.77278       0.0048 -0.0028183927 -0.0041699475   -84.233347    3.6655535    92.894092    104.14615    993886.39 
    4900    1873.3992       0.0049 0.0027953326 0.0060338269   -88.435297    7.5068313    92.903338    104.54802    1002027.3 
    5000    11567.655        0.005 0.0021549964 0.0075424039   -134.47058    46.352338    92.912584    104.90837    1009586.2 
    5100    1988.9403       0.0051 -0.00097994796 0.0026034771   -105.48727    7.9698121     92.92183    105.22836    1016532.7 
    5200    9052.7128       0.0052 -0.00021387641 0.0062654042   -135.05872    36.274804    92.931076    105.51391    1022944.8 
    5300    7197.5604       0.0053 -0.00083258357 0.0025004167   -126.81597    28.841089    92.940322      105.774    1028994.3 
    5400    2884.6823       0.0054 -0.0041579263 -0.00012313157   -110.38575    11.559108    92.949568     106.0311      1035128 
    5500    793.58566       0.0055 0.00019397855 0.00098196596   -94.978572    3.1799489    92.958814    106.27598    1041276.8 
    5600     1538.581       0.0056 -0.0035554137  0.003739135   -97.814114    6.1651932     92.96806    106.51294    1047182.7 
    5700    9869.6528       0.0057 -0.0020423145 -0.011416934   -132.36443    39.548335    92.977306    106.77793    1053377.6 
    5800    4904.8047       0.0058 -0.0015190348 -0.0081835391   -112.84017    19.653869    92.986552    107.09989    1060317.7 
    5900    680.16803       0.0059 -0.0036329427 0.0024047446   -95.437124    2.7254772    92.995798    107.42557    1067615.9 
    6000    6233.9934        0.006 -0.0039154693 0.0044303599   -119.26233    24.980013    93.005044    107.74084    1075031.3 
    6100    2432.6414       0.0061 0.00066799115 -0.0007011067   -104.77272     9.747751     93.01429    108.03345    1082130.8 
    6200    3459.8081       0.0062 0.0018010574 0.0067544989   -109.37441    13.863674    93.023536    108.29436    1088837.7 
    6300    3357.9785       0.0063 0.00065114888 -0.0033917396   -108.49199    13.455636    93.032782     108.5464    1095410.1 
    6400    996.05795       0.0064 -0.0011299879 -0.0084864895   -98.649752    3.9912684    93.042028    108.84183    1102075.4 
    6500    8868.6956       0.0065 0.0048522277 -0.0091161998   -131.31422    35.537435    93.051274    109.18978    1108685.8 
    6600    1351.5606       0.0066 -0.0017743825 0.00064645694   -101.39215    5.4157906     93.06052    109.55133      1115170 
    6700    4148.9699       0.0067 -0.0028560119 0.0025076163   -113.09168     16.62519    93.069765    109.89133    1121084.2 
    6800    2626.7287       0.0068 0.0025404737 -0.0031966707    -106.5376    10.525471    93.079011    110.24064    1127332.4 
    6900    1951.3624       0.0069 4.4945555e-05 -0.0057254843   -103.08335    7.8192349    93.088257    110.60985    1133892.3 
    7000    6305.1032        0.007 0.0044628357 0.0027657621   -122.28302    25.264955    93.097503    110.98612    1140544.8 
    7100    502.80266       0.0071 0.0017680335 0.0022266501   -99.471113    2.0147627    93.106749    111.34099    1147073.8 
    7200    7810.0053       0.0072 -0.0044763601 0.0054655086   -126.88499    31.295195    93.115995    111.65634    1153083.2 
    7300    1446.8252       0.0073 0.0030532499 0.0074010575   -102.76135    5.7975217    93.125241    111.92102    1158478.9 
    7400     1093.735       0.0074 -0.001605547 0.0036938878   -104.15289    4.3826669    93.134487    112.13868    1163503.2 
    7500    6035.8848       0.0075 -0.00015868364 0.0037281355   -115.48997     24.18618    93.143733    112.33742    1168438.6 
    7600    11998.834       0.0076 0.0067401246 -0.0012464418   -141.98551    48.080101    93.152979    112.52062    1173173.6 
    7700    6439.4371       0.0077 -0.00051962701 -0.00098629967   -117.66384     25.80324    93.162225    112.70831    1177863.9 
    7800    739.51812       0.0078 0.0058218537 -0.0022963046   -96.983213    2.9632968    93.171471    112.89845    1182633.3 
    7900    4270.6721       0.0079 -0.0018999922 -0.0079329743    -111.8667    17.112859    93.180717    113.12506    1187718.7 
    8000    2135.4694        0.008 -0.0015108045 -0.0044976449   -105.17686    8.5569636    93.189963    113.40064    1193507.6 
    8100    5982.9933       0.0081 0.00064466161 0.00036317778   -120.18315     23.97424    93.199209    113.69091    1199464.6 
    8200    654.72699       0.0082 -0.0033028218 0.00056427557   -98.951745    2.6235333    93.208455    113.97176    1205283.2 
    8300    11216.976       0.0083 -0.0053922077  0.003679508   -142.05241    44.947148    93.217701    114.22454      1210732 
    8400    413.61094       0.0084 -0.0024724542 0.0072739886   -95.796816    1.6573657    93.226947    114.43752    1215541.5 
    8500    3593.7284       0.0085 -0.00026078529 -0.0012809927   -107.80445    14.400302    93.236193     114.6278    1219891.1 
    8600    11846.546       0.0086 0.0044125535 -0.003124005     -140.084    47.469874    93.245439    114.82768    1224259.3 
    8700    1671.4627       0.0087 0.0036858506 -0.0023153774    -100.6575     6.697659    93.254685    115.04913    1228865.4 
    8800    2249.0205       0.0088 0.0065091948 -0.0028997825    -89.56037    9.0119701     93.26393    115.27986    1233696.9 
    8900      1675.14       0.0089 0.00088611016 0.00071216839   -86.185869    6.7123942    93.273176    115.52092      1238503 
    9000    421.26975        0.009 0.0039277578 0.00069195525   -84.659821    1.6880551    93.282422    115.75124    1243033.5 
    9100    435.47502       0.0091 -0.00090154652 -0.0029649989   -78.711332    1.7449765    93.291668    115.99306      1247555 
    9200    331.66189       0.0092 -0.0033292061 -0.0048481764    -80.92891    1.3289906    93.300914    116.26717    1252500.5 
    9300    2432.7373       0.0093 -0.0038075943 -0.0032855896   -92.890055    9.7481351     93.31016    116.56504    1258100.3 
    9400    8820.2917       0.0094 -0.004237081 0.0025061221   -121.25557    35.343478    93.319406    116.86125    1263971.2 
    9500    3874.5838       0.0095 0.0063430465 0.0040401616   -105.30811    15.525707    93.328652    117.13058    1270002.4 
    9600    502.83885       0.0096 0.0022889211 0.0018489109   -87.295106    2.0149077    93.337898    117.37175    1275814.1 
    9700    4061.4892       0.0097 -0.0051571629 0.0077321215   -104.79905    16.274649    93.347144    117.58404    1281184.6 
    9800    13272.749       0.0098 -0.0047293948 0.0011709312   -142.45855    53.184761     93.35639    117.75386    1285817.6 
    9900    2511.5866       0.0099 0.0025409739 0.0029413857   -98.677631     10.06409    93.365636    117.90406    1290057.8 
   10000    282.57842         0.01 0.0025656121 0.00014482694   -89.428541    1.1323099    93.374882    118.03439    1293832.4 
   10100    1341.8179       0.0101 0.0035948158 -0.00065837247   -106.31456    5.3767509    93.384128    118.17156      1297699 
   10200    2529.4902       0.0102  0.001872681  -0.00162728   -112.28405     10.13583    93.393374    118.32305    1301760.6 
   10300    6841.0988       0.0103 -0.0004537161 -0.0011731436   -125.89752    27.412724     93.40262    118.48339    1306058.4 
   10400    428.44926       0.0104 -0.0025999606 -0.00079011856   -94.668091    1.7168238    93.411866    118.65372    1310304.5 
   10500    8240.1849       0.0105  0.005216473 -0.001711866   -137.72574    33.018952    93.421112    118.83219    1314619.8 
   10600    2947.5801       0.0106 -0.0012263385 -0.0034018986   -114.22921    11.811144    93.430358    119.02732    1318966.2 
   10700     429.7406       0.0107 0.00046124797 -0.0032778075   -105.58919    1.7219983    93.439604    119.24967    1323315.3 
   10800      6005.42       0.0108 -0.004342971 -0.00091229808   -128.25146    24.064105     93.44885    119.48831    1327762.7 
   10900    2345.3769       0.0109 -0.0046514986 -0.00069715644   -114.27017    9.3980764    93.458096    119.72958    1332424.5 
   11000    2077.5691        0.011 3.2450355e-06 0.0043817206   -114.03567    8.3249535    93.467341    119.95403    1337118.1 
   11100    759.82662       0.0111 0.0069905067 -0.0046110394   -109.57964    3.0446743    93.476587    120.17421    1341817.1 
   11200    8350.7032       0.0112 0.0021264976  0.001795165   -141.80934    33.461806    93.485833    120.38352    1346340.5 
   11300    1800.3162       0.0113 -0.00099915835 0.00095834642    -113.0793     7.213983    93.495079     120.5889    1350681.1 
   11400    890.29949       0.0114 -0.002879183 -0.00073027481   -109.32996    3.5674875    93.504325    120.78954    1354955.5 
   11500     8248.458       0.0115 -0.0028449367 0.00085393522   -139.26881    33.052103    93.513571    120.99538    1359635.5 
   11600    1663.6403       0.0116  0.001971285 0.00081427081   -112.55016     6.666314    93.522817    121.20202    1364357.7 
   11700    943.78688       0.0117 0.0016876714 -0.0032863868   -110.08761    3.7818149    93.532063     121.4125    1368886.6 
   11800    8224.5594       0.0118 -0.00011193686 -0.0014652959    -140.0906     32.95634    93.541309    121.64285    1373345.8 
   11900    1610.1827       0.0119 -0.0016126448  0.004261554   -113.14113     6.452106    93.550555    121.86374      1377495 
   12000     949.6046        0.012 -0.0029053562 0.0058540371   -110.48665    3.8051269    93.559801    122.03843    1381036.4 
   12100    8457.9286       0.0121 -0.00094907244 0.0049697055   -140.93997    33.891465    93.569047    122.16035    1383972.5 
   12200    481.57185       0.0122 0.00026868651 -0.001956173   -98.941783    1.9296895    93.578293    122.25923    1386849.6 
   12300    11512.488       0.0123 -0.0016932353 0.0015923972   -144.20814    46.131284    93.587539    122.36235    1389758.1 
   12400    269.35565       0.0124 0.0039726038 0.0041392771   -97.191738    1.0793254    93.596785    122.45072    1392766.9 
   12500    10997.233       0.0125 0.0019884525 0.0022899294   -138.81418    44.066623    93.606031    122.51248    1395599.6 
   12600    1891.6743       0.0126 0.0041996917 0.00069684787   -102.31186    7.5800608    93.615277    122.57043      1398319 
   12700    429.52185       0.0127 0.0062028445 -0.0034070249   -96.130576    1.7211217    93.624523    122.64807    1401169.1 
   12800    4324.2291       0.0128 0.0029278429 -0.0044854595   -109.58225    17.327465    93.633769    122.75507    1404404.9 
   12900    8873.5305       0.0129 -0.0087122325 -0.0019251056   -131.08323    35.556809    93.643015    122.88946    1407744.7 
   13000    265.80671        0.013 -0.0015790941 -0.00076303752   -100.90286    1.0651046    93.652261    123.03979    1411259.2 
   13100    2391.1974       0.0131 -0.00053178886 -0.0022577905   -113.35052     9.581682    93.661506    123.19541    1414882.7 
   13200    9632.8246       0.0132 -0.0033179123 -0.0036143034   -144.98248    38.599349    93.670752    123.38392    1418812.2 
   13300    375.08009       0.0133 0.0028082238 -0.00061655159   -109.35514    1.5029701    93.679998     123.5992      1423230 
   13400    12101.413       0.0134 0.0022481867 -0.0011134028   -145.45482    48.491143    93.689244    123.81346    1427624.1 
   13500    311.29085       0.0135 0.0017756621 0.0013852147   -106.06928    1.2473625     93.69849    124.01559    1431648.7 
   13600    39057.396       0.0136 -0.073304551 -0.039621567   -37.831385    156.50551    93.707736    124.28516    1437421.9 
   13700     36786.46       0.0137  -0.20882328 -0.098567029   -37.632083    147.40572    93.716982    125.29071    1467558.9 
   13800    33720.307       0.0138  -0.19534325 -0.088513015   -37.815943    135.11944    93.726228    127.13193      1526977 
   13900    30258.546       0.0139  -0.18217588 -0.075211828   -37.605894    121.24794    93.735474    129.66158    1612410.3 
   14000    27048.537        0.014  -0.16080168  -0.06867294   -37.717236    108.38523     93.74472    132.65468    1718219.2 
   14100    24190.221       0.0141  -0.14172623 -0.060963492   -37.435942    96.931776    93.753966    135.84236    1834868.2 
   14200     21775.13       0.0142   -0.1336916 -0.049792788   -36.817787    87.254351    93.763212    138.95033    1951787.4 
   14300    19826.645       0.0143  -0.12233269 -0.042066146   -36.547199    79.446646    93.772458    141.80605    2062110.8 
   14400    18183.404       0.0144  -0.11179651 -0.039971014   -36.441579    72.862072    93.781704    144.40538    2164845.1 
   14500    16731.912       0.0145  -0.10170109 -0.039367424   -36.389465    67.045851     93.79095    146.85098    2262653.3 
   14600    15428.674       0.0146  -0.09742195 -0.036394864   -36.301122    61.823693    93.800196    149.23758    2357932.4 
   14700     14258.32       0.0147 -0.088875834 -0.032705923   -36.342501    57.134008    93.809442    151.61428    2453570.4 
   14800    13213.969       0.0148 -0.081431622 -0.028255476   -36.425984    52.949226    93.818688    153.97378    2550015.7 
   14900    12282.968       0.0149 -0.075993407 -0.024348734   -36.543102    49.218644    93.827934    156.31236    2646864.5 
   15000    11409.023        0.015 -0.071868713 -0.022201521   -36.563049    45.716691     93.83718     158.6299      2744117 
   15100     10563.91       0.0151 -0.067476339 -0.021332028   -36.411753     42.33027    93.846426    160.91332    2841583.7 
   15200    9866.4775       0.0152 -0.066495307 -0.015827673   -36.497562    39.535612    93.855672    163.13137    2938366.6 
   15300    9223.4186       0.0153 -0.059683343 -0.015649022   -36.542093    36.958833    93.864917    165.25516    3033275.2 
   15400    8643.7143       0.0154 -0.055337816 -0.015459071   -36.610539    34.635921    93.874163    167.29938    3126124.7 
   15500    8076.3797       0.0155 -0.050661262 -0.014067228   -36.507869    32.362574    93.883409     169.2775    3217027.4 
   15600    7574.2142       0.0156 -0.045915018 -0.012681845   -36.469651    30.350365    93.892655    171.17784    3305391.9 
   15700    7125.8861       0.0157 -0.043219729 -0.012268263   -36.484828    28.553885    93.901901    173.00673    3391539.7 
   15800    6715.4902       0.0158 -0.040219585 -0.011868189   -36.491041    26.909402    93.911147    174.76487    3475426.6 
   15900    6343.7354       0.0159 -0.037118051 -0.011287497   -36.485528    25.419757    93.920393    176.46091    3556425.6 
   16000    6021.2074        0.016 -0.034467874 -0.0081785287   -36.539322    24.127366    93.929639    178.07527    3633851.2 
   16100    5724.4463       0.0161 -0.033874445 -0.0062293991   -36.577217    22.938226    93.938885    179.58737    3707430.3 
   16200    5433.8291       0.0162 -0.033112601 -0.0060831649   -36.537532    21.773704    93.948131    181.01053    3777470.3 
   16300    5188.8228       0.0163 -0.032039984 -0.0045442052   -36.596784    20.791948    93.957377    182.35027    3844045.1 
   16400    4940.5856       0.0164 -0.030840943 -0.0046922138    -36.57286    19.797245    93.966623    183.60577    3907512.9 
   16500     4729.287       0.0165 -0.028037235 -0.0069614862   -36.653223    18.950558    93.975869     184.8057    3968905.1 
   16600    4518.4462       0.0166 -0.029295405 -0.0058833796   -36.670367    18.105705    93.985115    185.98333    4029130.1 
   16700    4302.9714       0.0167 -0.026149928 -0.0079604891   -36.628707    17.242284    93.994361    187.15995    4088908.9 
   16800    4110.8897       0.0168 -0.026260661 -0.0061257612   -36.620054      16.4726    94.003607    188.33417    4148240.1 
   16900    3933.4004       0.0169 -0.024119065 -0.0070433676   -36.624517    15.761389    94.012853    189.50457      4207155 
   17000    3770.5269        0.017   -0.0222893 -0.0069187966   -36.642355    15.108744    94.022099    190.68503    4265775.8 
   17100    3617.1578       0.0171 -0.021417199 -0.0056882201   -36.654228    14.494185    94.031345    191.87064    4323963.8 
   17200    3472.2784       0.0172 -0.020049314 -0.0043720044   -36.661728    13.913644    94.040591    193.03489    4381588.8 
   17300    3330.3292       0.0173 -0.019703078 -0.0029692058   -36.635023    13.344844    94.049837     194.1531    4437939.7 
   17400    3204.6468       0.0174 -0.017926012 -0.0035032259   -36.638346    12.841226    94.059082     195.2267    4492782.5 
   17500    3072.3463       0.0175 -0.016945316 -0.0026810298   -36.583518     12.31109    94.068328    196.25933    4546108.4 
   17600    2966.7207       0.0176 -0.016278704 -0.0018064761   -36.607548    11.887841    94.077574    197.24307    4597911.7 
   17700    2884.3272       0.0177  -0.01646153 -0.0014009609   -36.701021    11.557685     94.08682    198.17401    4648314.1 
   17800    2791.1828       0.0178 -0.016407157 -0.0023599729   -36.735619     11.18445    94.096066    199.06244    4697675.5 
   17900    2692.5007       0.0179 -0.017006789 -0.0034642685     -36.7335    10.789024    94.105312    199.92914    4746496.9 
   18000    2608.2172        0.018 -0.017382974 -0.002364518   -36.768777    10.451294    94.114558    200.78208    4795309.6 
   18100    2536.0154       0.0181 -0.016042465 -0.001756646   -36.827981    10.161977    94.123804    201.61315    4843678.4 
   18200    2444.8163       0.0182 -0.013629496 -0.003560124   -36.794502    9.7965366     94.13305    202.43357    4891359.7 
   18300    2363.9596       0.0183 -0.013723128 -0.0029661059   -36.782469    9.4725388    94.142296    203.25872    4938487.8 
   18400    2291.7857       0.0184 -0.013094319 -0.002264287   -36.782255     9.183333    94.151542    204.07303    4984306.5 
   18500    2233.3653       0.0185 -0.013384892 -0.0013144886   -36.816663    8.9492386    94.160788    204.86857    5028126.3 
   18600    2157.2583       0.0186 -0.012557058 -0.0033639438    -36.77719    8.6442732    94.170034    205.64995    5070194.7 
   18700    2089.5172       0.0187 -0.012824561 -0.0024541979   -36.761835    8.3728302     94.17928    206.44232    5112015.3 
   18800    2017.5419       0.0188 -0.0091630636 -0.0041532114   -36.723365    8.0844206    94.188526    207.25244      5154118 
   18900    1954.8428       0.0189 -0.0095013662 -0.0028648851   -36.706586    7.8331813    94.197772     208.0849    5196638.4 
   19000    1904.4458        0.019 -0.0084480807 -0.0047433656   -36.740524     7.631237    94.207018    208.95092    5240256.7 
   19100      1869.78       0.0191 -0.0093059723 -0.003082416   -36.825179    7.4923291    94.216264    209.85031    5285211.1 
   19200    1809.3977       0.0192 -0.010775131 0.00030292538   -36.783428    7.2503731     94.22551    210.72097    5330002.1 
   19300    1757.9092       0.0193 -0.011160655 0.00052786003   -36.767948    7.0440555    94.234756    211.51948    5373560.4 
   19400    1697.9462       0.0194 -0.011144094 -8.9458174e-05   -36.712768    6.8037798    94.244002    212.25772    5416231.9 
   19500    1673.0148       0.0195 -0.010380645 9.3061828e-05   -36.788785    6.7038782    94.253247    212.94656    5458106.9 
   19600    1655.5059       0.0196 -0.0098673652 0.00085210929   -36.883405    6.6337188    94.262493    213.57911    5498702.1 
   19700    1618.6601       0.0197 -0.008931403 -0.00029632638   -36.897984    6.4860753    94.271739    214.16008    5537784.6 
   19800    1559.7651       0.0198 -0.0087160875 -0.0022748016   -36.822506    6.2500792    94.280985    214.73562    5576324.2 
   19900    1514.7329       0.0199 -0.0088122751 -0.0018748866   -36.792752    6.0696325    94.290231    215.33385    5615170.2 
   20000     1477.027         0.02 -0.0077101008 -0.0019417043   -36.784032    5.9185424    94.299477    215.94042      5653769 
   20100    1434.1955       0.0201 -0.0076124218 -0.0027626388   -36.747359    5.7469138    94.308723     216.5672    5691679.1 
   20200     1402.778       0.0202 -0.0074123028 -0.0036471358   -36.752823    5.6210221    94.317969    217.24564    5729451.6 
   20300    1390.2202       0.0203 -0.0070630541 -0.0027631577   -36.830079     5.570702    94.327215    217.96912    5767000.6 
   20400    1370.0329       0.0204 -0.0078143835 -0.0013277923   -36.871255    5.4898101    94.336461    218.70358    5804023.6 
   20500    1338.0298       0.0205 -0.0075177458 -0.0013889615   -36.863542    5.3615718    94.345707    219.43159    5840802.5 
   20600    1307.9184       0.0206 -0.0072395488 -0.0013414797   -36.857494    5.2409133    94.354953    220.15169    5877279.6 
   20700    1270.9437       0.0207 -0.0076636409 -0.00013802487   -36.815418    5.0927532    94.364199    220.85223    5913007.1 
   20800    1250.8038       0.0208 -0.0069941666 0.00015952787   -36.839173    5.0120514    94.373445    221.51769    5948053.2 
   20900    1225.9951       0.0209 -0.0060753717 -0.00069687185   -36.847422    4.9126414    94.382691    222.15152    5983253.1 
   21000    1203.4884        0.021 -0.006543305 -0.00014425932   -36.863902    4.8224557    94.391937    222.76344    6019806.6 
   21100    1191.5016       0.0211 -0.005912322 0.00013762719   -36.917444    4.7744237    94.401183    223.34462    6057347.5 
   21200    1181.5205       0.0212 -0.0076755345 -0.00031111444    -36.96355     4.734429    94.410429    223.89478    6093601.8 
   21300    1156.9142       0.0213 -0.0063125758 -7.8196384e-05   -36.957193    4.6358298    94.419675    224.42358    6129153.7 
   21400    1112.5615       0.0214 -0.0050446421 -0.0021817822   -36.871473    4.4581057    94.428921    224.95469    6165261.2 
   21500    1101.0478       0.0215 -0.0052089388 -0.00085064161   -36.904535    4.4119695    94.438167    225.50696    6201344.8 
   21600    1077.0255       0.0216 -0.0033702195 -0.0015181044   -36.883803    4.3157106    94.447413    226.06188      6235915 
   21700    1044.0201       0.0217 -0.0051265517 -0.0012553941   -36.823628     4.183456    94.456658    226.63006    6269033.5 
   21800    1019.2916       0.0218 -0.0057763512 -0.0020431799   -36.799587    4.0843672    94.465904    227.21682    6301228.9 
   21900    1016.3576       0.0219 -0.0066673966 -0.00087790519   -36.861313    4.0726103     94.47515    227.82133    6333734.8 
   22000    1033.8595        0.022 -0.0065425243 -0.00081944291   -37.004521    4.1427416    94.484396    228.42161    6366791.3 
   22100    1025.5224       0.0221 -0.0039452042 -0.0017289237   -37.048625    4.1093344    94.493642    229.03216    6401131.7 
   22200    985.36292       0.0222 -0.0063997061 -0.0004249149   -36.953365    3.9484128    94.502888    229.64278    6435319.4 
   22300    984.08833       0.0223 -0.0060213939 -0.0011432975   -37.012722    3.9433054    94.512134    230.25865    6468831.7 
   22400    957.82227       0.0224 -0.0064137177 0.00076413612   -36.972419    3.8380556     94.52138     230.8475    6502306.5 
   22500    925.03467       0.0225 -0.0044779067 -0.00019091117   -36.908199    3.7066736    94.530626    231.40749    6536810.3 
   22600    901.72194       0.0226 -0.0042770852 0.00013736004   -36.877775     3.613258    94.539872    231.93648    6572187.6 
   22700     898.6798       0.0227 -0.0039099374 -2.3695198e-05   -36.924122    3.6010679    94.549118     232.4463    6608063.5 
   22800    886.82037       0.0228 -0.0026493512 -0.0011515487   -36.933783    3.5535464    94.558364    232.95449    6643829.2 
   22900    881.45411       0.0229 -0.0041113294 -0.00031072385   -36.962791    3.5320435     94.56761     233.4482    6678283.6 
   23000    856.36133        0.023 -0.0052831634 -0.0006428915   -36.908925    3.4314951    94.576856     233.9327    6710952.3 
   23100    862.73919       0.0231 -0.0042424188 -0.0027541216   -36.986588    3.4570516    94.586102    234.45706    6742713.6 
   23200    861.56566       0.0232 -0.0042175003 -0.002342663   -37.035565    3.4523492    94.595348    235.04023    6775414.3 
   23300    833.11745       0.0233 -0.0056896699 0.0001600943   -36.970005    3.3383554    94.604594    235.63685    6808288.9 
   23400    820.79986       0.0234 -0.003737254 -0.0016662806   -36.971139     3.288998     94.61384    236.21942    6840963.5 
   23500    815.37212       0.0235 -0.0050559701 0.00058419066   -36.993155    3.2672487    94.623086    236.80239    6873844.3 
   23600    797.38345       0.0236 -0.0039852487 -5.9644938e-05   -36.963492    3.1951669    94.632332    237.36086      6905666 
   23700    770.53673       0.0237 -0.0042680311 0.0016139983   -36.894404    3.0875904    94.641578    237.86861    6936100.7 
   23800    793.21685       0.0238 -0.003593405 0.00026797759   -37.026393    3.1784711    94.650823    238.32462    6965396.8 
   23900    784.02989       0.0239 -0.0033786228 -0.00090143312   -37.031784    3.1416583    94.660069    238.77041    6994484.8 
   24000    753.43302        0.024 -0.0037304667 -0.00036907418   -36.948747    3.0190547    94.669315    239.22522    7023367.4 
   24100    724.65751       0.0241 -0.0029179191 -0.0010787761   -36.875101    2.9037494    94.678561    239.67591    7052605.6 
   24200    725.19679       0.0242 -0.0042077443 -0.0017052525   -36.920386    2.9059103    94.687807    240.16079    7083784.6 
   24300    730.33405       0.0243 -0.0035180107 -0.0026551589   -36.983295    2.9264956    94.697053    240.70659    7116738.3 
   24400    718.55896       0.0244 -0.0031003517 -0.0019253189   -36.970245    2.8793121    94.706299    241.30319    7149968.8 
   24500    730.00234       0.0245 -0.0016062817 0.00065630135   -37.046373    2.9251665    94.715545    241.90288    7181650.2 
   24600    2891.7481       0.0246 -0.0015554536 0.0011678576   -45.740296    11.587421    94.724791    242.45289    7210087.5 
   24700    1661474.9       0.0247  -0.62100741  -0.28865088    -35.40094    6657.6372    94.734037    243.35993      7258034 
   24800    990009.67       0.0248   -5.6486721   -2.3329644   -29.642312    3967.0326    94.743283    299.51121    9190099.4 
   24900    617251.07       0.0249   -2.9668969  -0.78776428   -28.769559    2473.3648    94.752529    360.18846     11358813 
   25000    392078.64        0.025   -1.6977588  -0.32862249   -27.608301    1571.0844    94.761775    408.84135     13186483 
   25100    262804.61       0.0251   -1.0277237  -0.15761616   -27.109845     1053.075    94.771021    446.27024     14655783 
   25200    184314.99       0.0252  -0.66753564 -0.088032866   -27.095536    738.56204    94.780267    473.12995     15751961 
   25300    134048.58       0.0253  -0.45781256 -0.054326144   -27.349134    537.14132    94.789513    493.00833     16591454 
   25400    100410.57       0.0254  -0.32830986 -0.035447301   -27.523536    402.35162    94.798759     508.3746     17259830 
   25500    77120.233       0.0255  -0.24476159 -0.024014299   -27.755254    309.02575    94.808005    520.69734     17810424 
   25600    60519.347       0.0256  -0.18720076 -0.017604853   -28.074641    242.50492    94.817251     530.7022     18268688 
   25700    48339.426       0.0257  -0.14523146 -0.013785382   -28.265941     193.6992    94.826497      539.031     18655820 
   25800    39164.503       0.0258  -0.11521153 -0.010820069   -28.171148    156.93469    94.835743    546.23506     18993891 
   25900    32183.029       0.0259  -0.09309633 -0.0094583976   -28.170742    128.95947    94.844988    552.58094     19296108 
   26000    26830.188        0.026 -0.076417342 -0.0075551338   -28.425805    107.51029    94.854234    558.19281     19568741 
   26100    22617.174       0.0261 -0.063543059 -0.0052072101   -28.631765    90.628475     94.86348    563.14388     19814776 
   26200    19232.926       0.0262 -0.053166801 -0.0044252456   -28.709395    77.067574    94.872726    567.52382     20034491 
   26300    16529.955       0.0263 -0.045747803 -0.0031701717   -28.887837    66.236595    94.881972    571.29041     20223329 
   26400    14316.467       0.0264 -0.038373006 -0.0028011236   -29.025971    57.367007    94.891218    574.57316     20387366 
   26500    12477.071       0.0265 -0.032775835 -0.0029258972   -29.099436    49.996429    94.900464    577.59352     20536720 
   26600    10969.409       0.0266 -0.028624134 -0.0024480217   -29.261051    43.955128     94.90971    580.38027     20674903 
   26700     9733.778       0.0267 -0.025170506 -0.0016960012   -29.527334    39.003876    94.918956      582.835     20799909 
   26800    10150.194       0.0268 -0.022150451 -0.0013039196   -35.717481    40.672483    94.928202     585.0176     20908528 
   26900    7719.9284       0.0269 -0.020768141 -0.0013910044   -30.003192    30.934251    94.937448    587.06181     21018895 
   27000    6881.1156        0.027 -0.018963715 -0.00055568684   -29.899264    27.573074    94.946694    588.81092     21113613 
   27100    15017.949       0.0271 -0.015632303 -0.00096163498    -65.61314    60.177889     94.95594    590.40436     21193515 
   27200    16705.384       0.0272 -0.014381192 -0.0023051591   -76.746473     66.93955    94.965186    592.20198     21285916 
   27300    5215.4666       0.0273 -0.012132867 -0.0036954886   -32.726335    20.898711    94.974432    594.17498     21390995 
   27400    5742.7786       0.0274 -0.011267628 -0.0035973894   -30.882746    23.011684    94.983678    596.24656     21500857 
   27500     4968.599       0.0275 -0.0094617696 -0.0027354293   -29.863781    19.909497    94.992924    598.71569     21622904 
   27600    4518.3779       0.0276 -0.0095435141 -0.0021288751   -29.865602    18.105432     95.00217    601.29206     21745044 
   27700    4094.8336       0.0277 -0.0083246665 -0.0020756064   -29.742395    16.408262    95.011416    603.81717     21862642 
   27800    3715.2222       0.0278 -0.0072315501 -0.0021220515   -29.598681    14.887135    95.020662    606.33289     21979737 
   27900    3340.9825       0.0279 -0.0069843244 -0.0028172768   -29.311507    13.387532    95.029908    608.98872     22101667 
   28000    3055.2573        0.028 -0.0065318576 -0.0036275895   -29.241256    12.242613    95.039154    611.92099     22232499 
   28100    2875.1804       0.0281 -0.0062203443 -0.0033071002   -29.487686    11.521033    95.048399    615.08133     22370826 
   28200     2700.646       0.0282 -0.0059729853 -0.0016026529   -29.648982    10.821663    95.057645    618.33504     22513360 
   28300    2515.3254       0.0283 -0.0057546281 -0.00045605721    -29.66446    10.079071    95.066891    621.35994     22649653 
   28400     2382.934       0.0284 -0.0046943101 -0.00074854247   -29.828072    9.5485701    95.076137    624.04046     22773723 
   28500    2206.8678       0.0285 -0.0040320663 -0.00077491832   -29.750393    8.8430615    95.085383    626.56987     22888223 
   28600    2027.2589       0.0286 -0.0043401175 -0.00019562367   -29.584496    8.1233571    95.094629    628.87584     22988201 
   28700    1838.0011       0.0287 -0.003868176 -0.00081151862   -29.322348     7.364989    95.103875    631.06967     23080250 
   28800    1730.8593       0.0288 -0.0038924551 -0.00025164453   -29.330646    6.9356647    95.113121    633.00952     23161348 
   28900    1655.8958       0.0289 -0.0030514869 1.109821e-05   -29.430103    6.6352814    95.122367    634.79499     23233207 
   29000    1605.6663        0.029 -0.0023684496 -0.00039477586   -29.605161    6.4340085    95.131613    636.41486     23294085 
   29100    1564.0492       0.0291 -0.0025694074 -0.00021442745   -29.794062     6.267246    95.140859    637.87277     23346595 
   29200    1486.2789       0.0292 -0.0033865261 0.00023208735    -29.81152    5.9556152    95.150105    639.16211     23395699 
   29300    1419.9754       0.0293 -0.0029191106 -0.00065959692    -29.85663    5.6899331    95.159351    640.36578     23447671 
   29400    1317.7837       0.0294 -0.0027060125 -0.001030779   -29.734732    5.2804441    95.168597    641.62513     23506349 
   29500    1221.2418       0.0295 -0.0025460739 -0.0014008626   -29.610238    4.8935948    95.177843    642.99901     23572105 
   29600    1168.3122       0.0296 -0.0021744891 -0.0014619561   -29.640729    4.6815025    95.187089    644.56832     23647496 
   29700    1130.1182       0.0297 -0.0022981887 -0.0014178563   -29.717353    4.5284566    95.196335    646.33225     23733302 
   29800    1103.7616       0.0298 -0.0022037231 -0.0011183716   -29.828545    4.4228441    95.205581    648.21551     23825779 
   29900    1075.8225       0.0299 -0.0020004016 -0.00016161328   -29.914017    4.3108901    95.214827    650.05819     23918072 
   30000    1034.8856         0.03 -0.001093844 -0.00030756731   -29.935552    4.1468533    95.224073    651.82823     24006670 
   30100    993.06913       0.0301 -0.0016024969 0.00017111842   -29.937652    3.9792921    95.233319    653.44546     24085243 
   30200    932.39872       0.0302 -0.0013898187 -6.907502e-05   -29.852929    3.7361818    95.242564    654.83356     24149652 
   30300    853.46071       0.0303 -0.0022346958 0.00020221867   -29.678511    3.4198721     95.25181    656.14094     24207157 
   30400    806.17335       0.0304 -0.0020368849 -0.00022551166   -29.619443    3.2303886    95.261056     657.3161     24258472 
   30500    790.77902       0.0305 -0.0019795785 -7.4642165e-05   -29.679446    3.1687025    95.270302    658.41064     24305182 
   30600    781.92657       0.0306 -0.0011943246 -0.0001658625   -29.760529    3.1332302    95.279548    659.43502     24347054 
   30700    766.21204       0.0307 -0.0012990092 0.00020580582   -29.808701    3.0702611    95.288794    660.42896     24386671 
   30800     750.6505       0.0308 -0.0011574431 7.097879e-05   -29.852849     3.007905     95.29804    661.27034     24421721 
   30900    742.94649       0.0309 -0.0012111894 0.00022147718   -29.923749    2.9770345    95.307286    662.03582     24454764 
   31000    727.56613        0.031 -0.00084256036 -8.3811238e-05    -29.96052    2.9154044    95.316532    662.70297     24484116 
   31100    693.68516       0.0311 -0.0010246066 -0.00031057105   -29.918866    2.7796412    95.325778    663.40756     24513701 
   31200    654.07407       0.0312 -0.0012677911 -0.00072780709   -29.848764     2.620917    95.335024    664.13403     24544344 
   31300    630.01678       0.0313 -0.0011073075 -0.0010962963   -29.837649    2.5245179     95.34427    665.06792     24586444 
   31400    621.26846       0.0314 -0.0013865684 -0.0010917724   -29.886079    2.4894628    95.353516    666.15051     24639688 
   31500    619.08912       0.0315 -0.0012512123 -0.001045656   -29.959189      2.48073    95.362762    667.51295     24707096 
   31600    612.11701       0.0316 -0.0011697364 -0.00057544508   -30.007184    2.4527923    95.372008    668.94653     24779404 
   31700      597.847       0.0317 -0.00069941744 -0.0005047584   -30.022883    2.3956115    95.381254    670.40421     24854946 
   31800    570.04304       0.0318 -0.0013016147 0.00015277607   -29.975884    2.2841992      95.3905    671.82202     24931586 
   31900    524.82787       0.0319 -0.0008392186 -7.4872488e-05   -29.853308    2.1030191    95.399746     673.1345     25003273 
   32000    507.01283        0.032 -0.00065585658 0.0002818452   -29.833638    2.0316331    95.408992    674.31129     25064854 
   32100    482.19814       0.0321 -0.0010852634 0.00099350617   -29.780145    1.9321991    95.418238    675.31321     25115107 
   32200    472.48555       0.0322 -0.00028962904 0.00033240612   -29.786856    1.8932801    95.427484    676.03298     25150801 
   32300    469.60536       0.0323 -0.0011948905 0.00092055835   -29.818784     1.881739     95.43673     676.4912     25172037 
   32400    477.65086       0.0324 -0.00078807173 0.00021799389   -29.895808    1.9139778    95.445975    676.88646     25186283 
   32500    498.02173       0.0325 -0.00066370335 -0.0001008051    -30.02364    1.9956052    95.455221     677.2039     25194927 
   32600    490.86556       0.0326 -0.0010434195 0.00015591584   -30.039854      1.96693    95.464467     677.4961     25203157 
   32700    480.72116       0.0327 -0.00047295737 -0.00046039767   -30.042885    1.9262807    95.473713    677.80916     25214954 
   32800    454.01313       0.0328 -0.0011121936 -0.00056929987   -29.977957    1.8192599    95.482959    678.26102     25234514 
   32900    421.31918       0.0329 -0.00076662652 -0.0015766144   -29.889388    1.6882531    95.492205    678.94367     25264869 
   33000     413.6576        0.033 -0.0012629123 -0.00082824163    -29.89759    1.6575527    95.501451    679.91512     25308481 
   33100    421.11344       0.0331 -0.0004715995 -0.0007954203    -29.96618    1.6874287    95.510697    681.03683     25360431 
   33200     428.4304       0.0332 -0.00098908899 -5.8869424e-05   -30.030495    1.7167483    95.519943    682.23983     25419317 
   33300    432.82545       0.0333 -0.0002586293 -0.00039416069   -30.084764    1.7343595    95.529189    683.38977     25481450 
   33400    408.10364       0.0334 -0.00093833228 0.00024187155   -30.016685    1.6352976    95.538435    684.49306     25543995 
   33500    397.95955       0.0335 -0.00078829844 0.00018271261   -30.005133    1.5946496    95.547681    685.56371     25604555 
   33600    376.72353       0.0336 -0.00065638598 0.00039683807    -29.94683    1.5095555    95.556927    686.46929     25658287 
   33700    358.14532       0.0337 -0.00050248798 0.00056892818   -29.895673    1.4351114    95.566173    687.21251     25704703 
   33800    351.16724       0.0338 5.6554983e-05 0.00010653058   -29.890543    1.4071498    95.575419    687.80909     25739866 
   33900    353.82128       0.0339 -0.00054606524 0.00021795084   -29.923976    1.4177847    95.584665    688.34513     25764790 
   34000    365.35254        0.034 -0.00049127665 4.1885657e-05    -29.99413    1.4639912    95.593911    688.78935     25780801 
   34100    384.74716       0.0341 -0.00085006105 0.00049737953   -30.095593    1.5417067    95.603157    689.18727     25791587 
   34200    374.50648       0.0342 -0.00021244297 -0.00030701893   -30.079473    1.5006716    95.612403    689.50982     25796533 
   34300    350.44431       0.0343 -0.00049027259 -0.00029476799   -30.006097    1.4042529    95.621649     689.9227     25802277 
   34400     323.0432       0.0344 -0.0004213381 -0.00053729235   -29.917251    1.2944549    95.630895    690.39172     25813553 
   34500    313.46816       0.0345 -0.00092308516 -0.00047691246   -29.899004    1.2560871     95.64014    691.05847     25839895 
   34600     322.0666       0.0346 -0.00024768018 -0.0011654029    -29.95654    1.2905416    95.649386    691.87516     25878519 
   34700    331.65534       0.0347 -0.0011358437 -0.00024573577    -30.01487    1.3289644    95.658632    692.83222     25925382 
   34800    345.19684       0.0348 -0.00077520729 -0.00036663112   -30.089607     1.383226    95.667878    693.88494     25976227 
   34900    349.21636       0.0349 -0.00083101066 -0.00026135838   -30.126301    1.3993325    95.677124    694.95491     26028549 
   35000    328.63018        0.035 -0.00068734455 -8.3314461e-05   -30.062916    1.3168423     95.68637    696.04934     26085047 
   35100    306.68069       0.0351 -0.00029475679 0.00026949399   -29.990324    1.2288893    95.695616    697.02989     26140381 
   35200    288.84455       0.0352 -0.00010458409 0.00058440521   -29.931403    1.1574187    95.704862    697.91418     26192881 
   35300    286.43466       0.0353 -0.00027493595 0.00065648785   -29.933391    1.1477621    95.714108    698.52555     26234104 
   35400     282.8963       0.0354 -7.7898682e-05 0.00021499979   -29.931474    1.1335837    95.723354    699.02455     26267642 
   35500    295.33757       0.0355 -0.00028089256 0.00019505125   -29.993914    1.1834367      95.7326    699.41738     26291865 
   35600    302.97729       0.0356 -0.00076282498 0.00036857476   -30.037468    1.2140496    95.741846    699.76901     26311778 
   35700    313.45465       0.0357 -0.00021521332 -0.00040186078   -30.093715     1.256033    95.751092     700.1124     26329629 
   35800    313.32071       0.0358 -0.00038058249 -0.00040566695   -30.107657    1.2554963    95.760338    700.50295     26346895 
   35900    297.53108       0.0359 -0.00057974708 -0.00052494711   -30.058792    1.1922262    95.769584    701.08639     26370034 
   36000    281.86271        0.036 -0.00031481336 -0.00083132487   -30.010917    1.1294421     95.77883    701.79987     26401195 
   36100    258.80462       0.0361 -0.00059363226 -0.00020396259   -29.930733    1.0370468    95.788076    702.61471     26440950 
   36200    257.57037       0.0362 -0.00040499802 -9.5220591e-05   -29.936805    1.0321011    95.797322    703.44829     26485375 
   36300    274.04157       0.0363 -0.00079949605 -2.1932058e-06   -30.013514    1.0981022    95.806568    704.31389     26533845 
   36400    289.95072       0.0364 -0.00069229259 -0.00019087321    -30.08865    1.1618512    95.815814    705.13677     26581013 
   36500    289.00758       0.0365 -0.00073957486 0.00017417152   -30.094705     1.158072     95.82506    705.92377     26625943 
   36600    281.51048       0.0366 -0.0006982209 0.00036695424   -30.073462    1.1280306    95.834305    706.64832     26666769 
   36700     269.1574       0.0367 -0.00057332557 0.00019781986   -30.032849    1.0785311    95.843551    707.25562     26700509 
   36800    243.62169       0.0368 -2.931822e-05 -1.5595057e-05   -29.938975   0.97620782    95.852797    707.82719     26729216 
   36900    241.63497       0.0369 6.6466119e-05 0.00018325494   -29.938333    0.9682469    95.862043    708.33218     26751262 
   37000    250.34595        0.037 -0.00035360939 0.00034013554   -29.980595    1.0031524    95.871289    708.79106     26767635 
   37100    265.42985       0.0371 1.9785459e-06 -0.00029152262   -30.049804    1.0635945    95.880535    709.17966     26777516 
   37200    270.52104       0.0372 -0.00043015765 -0.00019171959    -30.07886    1.0839953    95.889781    709.62795     26788077 
   37300    261.70072       0.0373 -0.00029119038 -0.0004003787   -30.052269    1.0486517    95.899027     710.2103     26805693 
   37400    248.76253       0.0374 -0.00019251394 -0.00056875571   -30.009462    0.9968075    95.908273     710.8516     26829994 
   37500    242.69942       0.0375 -0.0007593059 -0.00010375585   -29.992764   0.97251221    95.917519    711.56924     26862138 
   37600    240.21619       0.0376 -0.00046497142 -0.00047933259   -29.991748   0.96256176    95.926765    712.40393     26902766 
   37700    241.87777       0.0377 -0.0006102936 -0.00062440447   -30.008606   0.96921983    95.936011    713.35675     26952164 
   37800    257.08788       0.0378 -0.0008228042 -8.5069645e-05   -30.077851    1.0301677    95.945257    714.37028     27009920 
   37900    257.37436       0.0379 -0.00012311176 6.8627565e-05   -30.085412    1.0313157    95.954503    715.36744     27070046 
   38000    261.04997        0.038 -0.00012685064 0.00036501589    -30.10456    1.0460441    95.963749    716.31254     27127618 
   38100     259.5914       0.0381 8.5638189e-06 1.8731511e-05   -30.104431    1.0401995    95.972995    717.12893     27178190 
   38200    240.51554       0.0382 -0.00058768158 0.00014727449   -30.032899   0.96376128    95.982241    717.91193     27224321 
   38300     219.9057       0.0383 -0.00035682422 -0.00013203324   -29.955457   0.88117632    95.991487    718.68748     27265277 
   38400    211.33933       0.0384 -0.00061102517 0.00016789937   -29.925151   0.84685031    96.000733    719.43671     27299008 
   38500    222.35011       0.0385 -6.5933196e-05 3.8931843e-05   -29.973787   0.89097123    96.009979      720.126     27325410 
   38600    238.23615       0.0386 -0.00029189745 0.00037236016   -30.041287   0.95462763    96.019225     720.7117     27344772 
   38700    257.27436       0.0387 -5.1979118e-05 -0.00019451999   -30.123169    1.0309149    96.028471    721.32376     27363128 
   38800     264.1264       0.0388 -0.00073043901 2.0060085e-05   -30.155729    1.0583715    96.037716    721.92101     27380934 
   38900    243.56297       0.0389 -0.00045722256 7.0852166e-05   -30.077801   0.97597251    96.046962    722.47429     27399156 
   39000    233.44588        0.039 -0.0007111556 0.00049345716   -30.040634    0.9354327    96.056208      722.941     27417277 
   39100    206.71539       0.0391 0.0003045339 -0.0004974865   -29.938392   0.82832189    96.065454    723.40905     27438585 
   39200    212.72508       0.0392 -0.00032814449 -6.0101229e-05   -29.966792   0.85240312      96.0747     723.8991     27465956 
   39300     221.9139       0.0393 -0.00046004616 -8.2948852e-05   -30.009296   0.88922332    96.083946    724.44834     27504638 
   39400    244.99223       0.0394 -0.00040278362 -0.0002262105   -30.108237   0.98169965    96.093192    725.01371     27552981 
   39500    245.11993       0.0395 -0.00049252407 -0.00027831513   -30.114179   0.98221136    96.102438     725.6255     27607324 
   39600    241.98013       0.0396 -3.5123884e-05 -0.00062345132   -30.106213   0.96962998    96.111684    726.37006     27664249 
   39700    236.80742       0.0397 -0.00037806886 -7.9301862e-05   -30.088871   0.94890259     96.12093    727.22209     27720589 
   39800    215.46591       0.0398 -0.00052335459 0.00012079119   -30.006483   0.86338581    96.130176    728.05806     27775874 
   39900    216.09572       0.0399 -0.00024140876 0.00011743522   -30.010963   0.86590948    96.139422    728.80985     27827223 
   40000    208.45649         0.04 4.0430761e-05 -1.0886742e-05   -29.981669    0.8352986    96.148668    729.54907     27870942 
   40100    217.49096       0.0401 -0.00023149253 0.00012946084   -30.019884   0.87150031    96.157914    730.26265     27903032 
   40200    218.65726       0.0402 -0.0005780607 0.00020767417   -30.026956   0.87617374     96.16716    730.88553     27923901 
   40300    223.63945       0.0403 -0.00053318629 0.00011662297   -30.049454   0.89613772    96.176406    731.45613     27939415 
   40400    226.52924       0.0404 -0.00051399773 -0.0001055725   -30.063919   0.90771728    96.185652    732.01376     27954487 
   40500    222.63408       0.0405 -0.00057163841 -0.00032004216   -30.051765   0.89210913    96.194898    732.64676     27973670 
   40600    215.56147       0.0406 -0.0003751861 -0.00035605816   -30.027029   0.86376873    96.204144     733.3304     27995320 
   40700    212.74047       0.0407 -0.00065523149 8.260638e-05   -30.017698   0.85246479     96.21339     734.0554     28018365 
   40800    220.16981       0.0408 -0.00018609556 -0.00026881138   -30.050341   0.88223461    96.222636    734.83173     28045150 
   40900      224.808       0.0409 -0.00029903049 -0.00019859846   -30.071845   0.90082016    96.231881    735.63815     28078879 
   41000    225.08414        0.041 8.7154836e-05 -0.0004645895   -30.077584   0.90192667    96.241127    736.52805     28123782 
   41100     229.1738       0.0411 -0.00040428473 4.2669803e-05   -30.096446   0.91831421    96.250373    737.48168     28177266 
   41200    221.36207       0.0412 -0.00011370433 -0.00020795329   -30.068315    0.8870121    96.259619    738.50108     28236096 
   41300    210.10157       0.0413 -9.3498265e-05 -0.00012608701    -30.02527   0.84189053    96.268865    739.48279     28293408 
   41400    203.34655       0.0414 -0.00044178673 0.00030792144   -29.997732   0.81482274    96.278111    740.40616     28345725 
   41500    200.43114       0.0415 -0.0002764266 0.00018108051   -29.986168   0.80314049    96.287357    741.27955     28391005 
   41600    202.60247       0.0416 -4.9978247e-05 0.00018129794   -29.995254   0.81184116    96.296603    742.04177     28426498 
   41700    205.13436       0.0417 -0.00040588294 0.00069009773   -30.004579    0.8219866    96.305849    742.65749     28454557 
   41800    212.58207       0.0418 -0.00026918524 0.00042257679   -30.034775   0.85183005    96.315095    743.10147     28477759 
   41900      216.023       0.0419 -0.00025016008 -1.8358585e-05   -30.049724   0.86561808    96.324341    743.47044     28498400 
   42000    223.52202        0.042 -0.00023378782 -0.00028362113   -30.081428   0.89566715    96.333587    743.85582     28518459 
   42100     220.7085       0.0421 -0.00038769859 -0.00016809873   -30.071684    0.8843932    96.342833    744.31002     28541135 
   42200    212.07629       0.0422 -0.00049131556 -0.0002886752   -30.039145   0.84980335    96.352079    744.84974     28569504 
   42300    211.38476       0.0423 -0.00041854269 -0.00047685733   -30.039253   0.84703236    96.361325    745.49228     28605985 
   42400    217.81412       0.0424 -0.00029834188 -0.00045072405   -30.067713   0.87279524    96.370571     746.2937     28650437 
   42500      226.363       0.0425 -0.00033287253 -0.00026877172   -30.104105   0.90705116    96.379817    747.21623     28699869 
   42600    227.10652       0.0426 -0.00027742636 -8.866812e-05   -30.108661   0.91003048    96.389063    748.18312     28752382 
   42700    223.66188       0.0427 -7.0069433e-06 -2.2563449e-05   -30.096252   0.89622759    96.398309    749.09039     28805974 
   42800    216.25052       0.0428 -0.00011265524 0.00027727289   -30.066532   0.86652979    96.407555    749.98191     28862455 
   42900    214.76672       0.0429 -0.00014127983 7.5627112e-06   -30.061502    0.8605841    96.416801    750.82185     28919198 
   43000    201.13152        0.043 -0.00082963145 0.00020597677   -30.006383   0.80594698    96.426047    751.58508     28972845 
   43100    190.63911       0.0431 -0.00029965602 -0.00027916238   -29.964834   0.76390322    96.435292    752.38458     29023393 
   43200     198.3553       0.0432 -0.00046793168 -1.2562748e-05   -29.995516   0.79482246    96.444538    753.19338     29068174 
   43300    204.36019       0.0433 -0.00037629137 2.9280434e-05   -30.019526   0.81888447    96.453784    754.00506     29106657 
   43400    215.74087       0.0434 -0.00022505945 1.2442961e-05    -30.06529    0.8644876     96.46303    754.74068     29137346 
   43500    219.54598       0.0435 -0.0004870477 0.00020527793   -30.080101   0.87973491    96.472276    755.47792     29166016 
   43600    210.98486       0.0436 -0.00012631165 -0.00033679498    -30.04727   0.84542996    96.481522    756.25388     29194322 
   43700    214.64162       0.0437 -0.00015007326 -0.00024080492   -30.063118   0.86008283    96.490768    757.06149     29220881 
   43800    211.83806       0.0438 -4.8398808e-05 -1.5515211e-05   -30.051975   0.84884878    96.500014    757.89592     29246910 
   43900    220.18428       0.0439 -0.00050869193 8.2285921e-05    -30.08496    0.8822926     96.50926    758.72839     29273766 
   44000    222.22938        0.044 -0.00049299715 -0.00033296753   -30.094384   0.89048747    96.518506    759.59823     29306387 
   44100    218.05369       0.0441 -0.00052421847 -0.00031040222   -30.079136   0.87375519    96.527752    760.53987     29346123 
   44200    222.34269       0.0442 -0.00043603781 -0.00016971783     -30.0971   0.89094151    96.536998    761.54706     29389449 
   44300    218.97871       0.0443 -0.00058241666 0.00011392929   -30.083055    0.8774618    96.546244    762.56967     29434827 
   44400    216.33911       0.0444 -0.00036989627 -4.1633103e-05   -30.072892   0.86688477     96.55549    763.54461     29482356 
   44500     214.2424       0.0445 -0.00053319891 0.00032784135   -30.063668   0.85848312    96.564736    764.47319     29534302 
   44600    204.92228       0.0446 0.00025433853 8.6697704e-05   -30.026089   0.82113679    96.573982    765.35137     29589584 
   44700    190.01484       0.0447 -1.5181818e-05 0.00040762943   -29.964102   0.76140172    96.583228    766.09222     29640124 
   44800      193.838       0.0448 0.00011713789 0.00023541524   -29.977366   0.77672136    96.592474    766.70001     29681028 
   44900    200.28993       0.0449 -0.00017886677 0.00015691352   -30.002124   0.80257468     96.60172    767.25616     29715661 
   45000    220.60676        0.045 -0.00023062153 -0.00012708423   -30.083396   0.88398551    96.610966    767.82066     29750401 
   45100    224.20575       0.0451 -9.947794e-05 -9.2474971e-05   -30.097267   0.89840689    96.620212    768.38019     29783936 
   45200      218.758       0.0452 1.6847968e-05 -6.0260345e-05   -30.074764   0.87657741    96.629457    768.97651     29816645 
   45300    221.98286       0.0453 -0.00010488206 -0.00023418433   -30.087767   0.88949965    96.638703    769.59551     29849628 
   45400    214.44318       0.0454 -0.00074407582 -0.00022720679   -30.058413   0.85928765    96.647949    770.30243     29889209 
   45500    216.08605       0.0455 -0.00055390948 -0.0004511188   -30.066972   0.86587072    96.657195    771.08451     29938091 
   45600     207.9488       0.0456 -0.00055716446 -0.00016462931   -30.034252   0.83326425    96.666441    772.02348     29994503 
   45700    215.57089       0.0457 -0.00025026183 -0.00023471787   -30.064913   0.86380647    96.675687    773.02124     30050535 
   45800    231.07617       0.0458 -0.00040364021 3.318313e-06   -30.126302   0.92593712    96.684933    773.98554     30104004 
   45900    218.99192       0.0459 -0.00046965452 -8.6214221e-05   -30.077991   0.87751474    96.694179    774.98141     30160607 
   46000    218.92211        0.046 -0.00044388403 -0.00016504015   -30.077969   0.87723503    96.703425    775.98827     30220269 
   46100    209.36852       0.0461 -0.00033609211 9.6532122e-05   -30.037992   0.83895315    96.712671     777.0379     30280609 
   46200    194.93691       0.0462 -5.2006692e-05 0.00019882598   -29.977658   0.78112476    96.721917    777.98636     30332509 
   46300    198.27808       0.0463 -0.00032323747 0.00034435088   -29.988407   0.79451307    96.731163    778.83045     30373509 
   46400    196.77139       0.0464 -0.00015385319  -0.00022922   -29.982342   0.78847565    96.740409    779.63642     30407553 
   46500    213.21603       0.0465 -0.00046343561 3.4947033e-05   -30.047171   0.85437038    96.749655     780.4465     30440677 
   46600    216.94233       0.0466 0.00010427905 -0.00012698709   -30.061469   0.86930193    96.758901    781.30477     30474702 
   46700    229.16208       0.0467 -0.0002876069 0.00013636188   -30.108792   0.91826724    96.768147    782.14474     30506897 
   46800    236.04128       0.0468 7.4798381e-05 -0.00035426861   -30.136478   0.94583263    96.777393    782.99107     30539832 
   46900    219.56088       0.0469 -0.00076303936 4.3180635e-05   -30.069232   0.87979462    96.786639    783.86821     30577284 
   47000    205.92397        0.047 -0.00039353025 -0.00033854564    -30.01519   0.82515064    96.795885    784.85339     30622343 
   47100    200.48955       0.0471 -0.00031911764 -0.0001072863   -29.993049   0.80337458    96.805131    785.86581     30670827 
   47200    211.68287       0.0472 -0.00033140305 0.00012366041   -30.036481    0.8482269    96.814377    786.87048     30722233 
   47300    235.78061       0.0473 -0.00037450118 0.00012204157   -30.131404    0.9447881    96.823622    787.76719     30772351 
   47400    229.81162       0.0474 -0.0007509723 -0.0001555954   -30.107245   0.92086999    96.832868    788.72402     30826477 
   47500    232.95196       0.0475 -0.00040140034 -0.0003598471   -30.120396   0.93345354    96.842114    789.73607     30883573 
   47600    207.13688       0.0476 -0.00040168669 0.00026226058   -30.014396   0.83001082     96.85136    790.77666     30941727 
   47700    205.63401       0.0477 0.00022978353 3.5151125e-05   -30.006503   0.82398876    96.860606     791.7036     30994632 
   47800    205.42458       0.0478 -0.00021576125 0.0003004148   -30.002759   0.82314955    96.869852    792.59269     31042699 
   47900    202.16924       0.0479 2.9777587e-05 -0.00033912583   -29.989687    0.8101052    96.879098    793.46423     31086995 
   48000    220.26573        0.048 -0.00071514319 0.00036315028   -30.059386   0.88261898    96.888344    794.30735     31129754 
   48100    227.12362       0.0481 -8.2590589e-06 2.9342041e-05   -30.085074   0.91009899     96.89759    795.15245     31170362 
   48200    228.69305       0.0482 0.00017889187 -0.00017783046   -30.090346   0.91638781    96.906836    795.88898     31202159 
   48300      231.098       0.0483 -0.00019980583 2.5063498e-06     -30.0984   0.92602461    96.916082    796.71901     31234308 
   48400    212.00512       0.0484 -0.00030590239 -0.00032218387   -30.022024   0.84951821    96.925328    797.58636     31273559 
   48500    214.03913       0.0485 -0.00075504026 -8.314974e-07    -30.02966   0.85766859    96.934574    798.51942     31324687 
   48600    205.21404       0.0486 -2.3616168e-05 -0.00016002568   -29.993855   0.82230591     96.94382    799.45762     31380495 
   48700    218.26977       0.0487 -0.00017596104 0.00010363135   -30.044327   0.87462106    96.953066    800.37508     31436914 
   48800    236.82254       0.0488 -0.00019490324 -0.00029128731   -30.118967    0.9489632    96.962312    801.36086     31497641 
   48900    230.69051       0.0489 -0.00083111865 -0.00017445432   -30.096176   0.92439175    96.971558    802.39348     31566642 
   49000    236.68569        0.049 -0.0002913442 -0.00032777417   -30.122619   0.94841482    96.980804    803.52116     31649438 
   49100    220.58878       0.0491 -0.00053077923 0.00026947214   -30.053361   0.88391347     96.99005    804.62536     31732371 
   49200    200.99777       0.0492 6.036874e-05 -0.00014216348   -29.971001   0.80541105    96.999296    805.72398     31803561 
   49300    204.55625       0.0493 -0.00034043087 0.00023949625    -29.98147   0.81967009    97.008542    806.76182     31858834 
   49400    206.77334       0.0494 -0.00028850052 0.00014058911   -29.988017   0.82855409    97.017788    807.74239     31904867 
   49500    223.66267       0.0495 -0.00057672004 0.00033641915   -30.052677   0.89623075    97.027033    808.56712     31941654 
   49600    229.90921       0.0496 -0.0001986977 0.00014931047   -30.075405   0.92126102    97.036279    809.34411     31973116 
   49700    245.38444       0.0497 0.00028480547 -0.00016883624   -30.136147   0.98327129    97.045525    810.05596     31998469 
   49800    231.89198       0.0498 -0.0007205085 0.00025868543   -30.079567    0.9292061    97.054771    810.82094     32023594 
   49900    216.83864       0.0499 -0.00011243873 -0.00071015796   -30.020201   0.86888642    97.064017    811.61196     32049844 
   50000    204.57005         0.05 -0.00094777508 -1.3795935e-05   -29.969535   0.81972537    97.073263    812.52207     32084831 
   50100    208.95279       0.0501 -8.2424897e-05 -0.00060720138   -29.988721   0.83728733    97.082509    813.60403     32133020 
   50200    216.12928       0.0502 -0.00054935302 -0.00014201298   -30.017522   0.86604396    97.091755    814.79691     32193734 
   50300    222.38506       0.0503 2.5954183e-05 -0.00028749926   -30.043384   0.89111127    97.101001    816.01831     32263007 
   50400    233.86617       0.0504 -0.00044596875 0.00044416217   -30.085445   0.93711683    97.110247    817.23397     32336104 
   50500    241.02683       0.0505 0.00023252632 -0.00020905401   -30.113299   0.96581004    97.119493    818.36831     32407256 
   50600    231.54091       0.0506 -0.00075721345 0.0002565633   -30.072379   0.92779938    97.128739    819.48637     32478286 
   50700    216.38095       0.0507 -6.7869747e-06 -0.00035269749   -30.011117    0.8670524    97.137985    820.61114     32548426 
   50800    212.16286       0.0508 -0.00063026985 0.00032705228    -29.98993   0.85015027    97.147231    821.68583     32611749 
   50900     220.2329       0.0509 -0.0003869759 0.00011376327   -30.019492   0.88248744    97.156477     822.7519     32668494 
   51000    216.84873        0.051 -0.00016506117 -7.0055249e-05   -30.004244   0.86892685    97.165723    823.74597     32718007 
   51100    234.37023       0.0511 -0.00033028611 8.7287941e-05   -30.072083   0.93913663    97.174969    824.69724     32764000 
   51200    240.17732       0.0512 -0.00015229169 3.1345537e-06   -30.093269   0.96240601    97.184215    825.69632     32808678 
   51300    243.36342       0.0513 1.2423674e-05 -0.00017244831   -30.104741   0.97517293    97.193461    826.63282     32846816 
   51400    225.18998       0.0514 -0.00049288218 0.00024464384   -30.028838   0.90235076    97.202707     827.5928     32884661 
   51500    223.87952       0.0515 -0.00035261908 -6.1669512e-07   -30.021743   0.89709968    97.211953     828.4876     32921306 
   51600    220.55556       0.0516 -0.00026801564 -0.00023773473   -30.007647   0.88378036    97.221198    829.40644     32960207 
   51700    220.51137       0.0517 -0.00020577879 -8.059278e-05   -30.006056   0.88360329    97.230444    830.36537     33004018 
   51800    229.24618       0.0518 -8.0331537e-05 -0.00011009747   -30.040176   0.91860425     97.23969     831.3823     33056564 
   51900    243.80677       0.0519 -0.00052423989 -0.00010521304   -30.098344   0.97694946    97.248936    832.45196     33119610 
   52000    243.81376        0.052 -0.00039188121 -0.00037510597    -30.09965   0.97697745    97.258182    833.59166     33192702 
   52100    233.86016       0.0521 -0.00047732984 -0.00020328894   -30.059511   0.93709276    97.267428    834.75749     33270637 
   52200    223.30712       0.0522 -0.00016567335 -0.00016454263   -30.016389   0.89480605    97.276674    836.10505     33356594 
   52300    211.89836       0.0523 2.6010665e-05 -1.3657286e-05    -29.96901   0.84909038     97.28592    837.43111     33441878 
   52400    206.23574       0.0524 -0.00052731059 0.00052876876   -29.940876   0.82639989    97.295166    838.63133     33521126 
   52500    229.70426       0.0525 -0.00026408262 0.00033430802   -30.030076   0.92043977    97.304412    839.60164     33585367 
   52600    233.21998       0.0526 -0.00022994641 0.00012902145   -30.040922   0.93452751    97.313658    840.51857     33640755 
   52700    248.69884       0.0527 -9.4047581e-05 -0.00011229383   -30.100842   0.99655227    97.322904     841.3923     33688873 
   52800    243.22039       0.0528 -0.00033226974 0.00022768461   -30.075651    0.9745998     97.33215    842.24722     33729768 
   52900    242.52094       0.0529 -0.0002498268 -1.828848e-05    -30.07086   0.97179706    97.341396    843.01329     33761747 
   53000    236.00877        0.053 -0.00055740424 -0.00019126911   -30.043663   0.94570238    97.350642    843.80728     33792034 
   53100    231.85648       0.0531 -0.00044326548 -0.00083553727   -30.029865   0.92906389    97.359888    844.85356     33827280 
   53200    226.02754       0.0532 -0.00027399761 -0.0003951716   -30.006686   0.90570693    97.369134    846.13518     33872008 
   53300    232.12013       0.0533 -0.00054329057 1.9695123e-05   -30.029076   0.93012031     97.37838    847.51892     33929441 
   53400    239.38464       0.0534 -0.00018224805 -0.00027803501   -30.058917   0.95922971    97.387626    848.87925     33997329 
   53500    247.23586       0.0535 -0.00054068111 0.0002060602     -30.0884   0.99069004    97.396872    850.25882     34076524 
   53600    251.48509       0.0536 -0.00024799144 9.2948798e-05   -30.103926     1.007717    97.406118      851.574     34160849 
   53700    243.74843       0.0537 -0.00022284561 6.154248e-05   -30.071189   0.97671569    97.415364    852.86381     34248430 
   53800    234.88498       0.0538 -0.00021385587 0.00020725661   -30.032178   0.94119925    97.424609    854.02738     34331728 
   53900    219.48108       0.0539 -0.00050640352 0.00043188669   -29.965278   0.87947485    97.433855    855.07207     34407165 
   54000    221.81013        0.054 -0.00027922525 -1.6735795e-05   -29.971743   0.88880749    97.443101    856.05007     34473645 
   54100    225.02339       0.0541 -0.00018479386 -5.8757493e-05   -29.982537   0.90168325    97.452347    856.99089     34533277 
   54200    232.61328       0.0542 -0.00025685753 8.328826e-05   -30.010189    0.9320964    97.461593    857.90914     34589102 
   54300    238.34662       0.0543 -1.8998805e-05 -0.00016857033   -30.031292   0.95507027    97.470839    858.85764     34640083 
   54400    240.33276       0.0544 -0.00017574491 -0.00035038082   -30.038898   0.96302887    97.480085    859.90751     34686950 
   54500    240.98217       0.0545 -0.0005186139 -0.00014601834   -30.040364   0.96563111    97.489331    861.01636     34731672 
   54600    241.73209       0.0546 -0.00043212647 1.4909039e-05   -30.041271   0.96863608    97.498577    862.18532     34778782 
   54700    234.24137       0.0547 -9.3599824e-05 -0.00019856963   -30.010316   0.93862027    97.507823    863.37644     34828752 
   54800    238.15562       0.0548 -0.00026387896 8.2852443e-06   -30.023954   0.95430493    97.517069     864.5774     34881386 
   54900    243.32205       0.0549 -0.00026629197 3.9851225e-05   -30.042502   0.97500713    97.526315    865.74793     34936234 
   55000    249.42555        0.055 -0.00077513619 0.00021540854   -30.064442   0.99946426    97.535561    866.86894     34995775 
   55100    258.24284       0.0551 -0.0003196363 -0.00027767383   -30.100189    1.0347957    97.544807    868.01326     35063905 
   55200    256.52752       0.0552 -0.00038917886 8.661549e-07   -30.091761    1.0279223    97.554053    869.15805     35137409 
   55300     254.4227       0.0553 -0.00016402421 1.5175369e-05   -30.081075    1.0194882    97.563299    870.35148     35214212 
   55400    242.73126       0.0554 -0.00019763755 -0.00019794423   -30.033478   0.97263981    97.572545     871.5411     35290909 
   55500    225.95007       0.0555 -0.00056408302 -0.00014427616   -29.965653   0.90539648    97.581791    872.76578     35370073 
   55600    223.66243       0.0556 -0.00033698786 -5.2032706e-05   -29.954831   0.89622979    97.591037    874.03763     35451814 
[...]
  142300    304.96291       0.1423 -0.00020195699 -0.00018026404   -30.016321     1.222006    105.60728    2001.5837 1.2978915e+08 
  142400    309.87072       0.1424 -0.00024449074 -0.00015411302   -30.038293     1.241672    105.61652    2003.2474 1.3002374e+08 
  142500    298.96934       0.1425 -0.00023249087 -4.2162296e-05   -29.996102    1.1979894    105.62577    2005.0489 1.3028457e+08 
  142600    286.46441       0.1426 -0.0001668728 3.8990159e-06   -29.945711    1.1478814    105.63502     2006.879 1.3055071e+08 
  142700    291.08006       0.1427 -0.00016685471 0.0001171643   -29.961547    1.1663766    105.64426    2008.5162 1.3078928e+08 
  142800    280.49386       0.1428 -5.0820471e-05 3.2464671e-05   -29.917323     1.123957    105.65351    2010.0223 1.3099306e+08 
  142900    282.70524       0.1429 -7.1171476e-05 -2.0800863e-06   -29.925192    1.1328181    105.66275    2011.4764 1.3116241e+08 
  143000    282.74565        0.143 -0.00017027849 0.00013685174   -29.923909      1.13298      105.672     2012.712 1.3129107e+08 
  143100    294.47289       0.1431 -0.00013325164 6.7885713e-05   -29.970198    1.1799719    105.68125     2013.696 1.3138537e+08 
  143200    309.84345       0.1432 -0.00019704556 8.1202505e-05   -30.031299    1.2415627    105.69049    2014.4613 1.314546e+08 
  143300    306.31289       0.1433 -0.0001724872 -9.5254189e-06    -30.01705    1.2274155    105.69974    2015.0392 1.3149693e+08 
  143400    306.42202       0.1434 -0.00014422934 -6.101026e-05   -30.017621    1.2278528    105.70898    2015.7748 1.3153812e+08 
  143500    294.40045       0.1435 -0.0003168431 2.9153525e-05   -29.969226    1.1796816    105.71823    2016.5291 1.3158905e+08 
  143600     300.9664       0.1436 -0.00021038836 -0.00011187719   -29.996531    1.2059918    105.72748    2017.3658 1.3168018e+08 
  143700    304.64388       0.1437 -0.0001898701 -0.0001499852   -30.012608    1.2207277    105.73672    2018.5239 1.3182496e+08 
  143800    315.42332       0.1438 -0.00017458133 -0.00016308227   -30.056877    1.2639216    105.74597    2020.0779 1.3200125e+08 
  143900    311.64963       0.1439 -0.00026692555 -4.0300717e-05   -30.042248    1.2488002    105.75521    2021.9669 1.3219504e+08 
  144000    310.57456        0.144 -0.0001791183 1.9119203e-05   -30.037537    1.2444923    105.76446    2023.6899 1.3237508e+08 
  144100    309.14644       0.1441 -0.00023174075 0.00017675827   -30.029957    1.2387697    105.77371    2025.2278 1.3253408e+08 
  144200    295.61178       0.1442 -0.00011015154 7.7190314e-05   -29.974884    1.1845355    105.78295    2026.4319 1.3266082e+08 
  144300    285.04548       0.1443 -7.3329663e-05 4.9853035e-05   -29.932009    1.1421956     105.7922    2027.4562 1.3276448e+08 
  144400    277.64003       0.1444 -5.6451563e-05 9.863003e-05   -29.901669    1.1125215    105.80144    2028.2469 1.3284907e+08 
  144500    276.42983       0.1445 -5.0848703e-05 4.8034082e-05    -29.89647    1.1076721    105.81069    2028.9212 1.3293206e+08 
  144600     289.6298       0.1446 -9.4869344e-05 -3.3917049e-05   -29.949243    1.1605653    105.81994     2029.522 1.3300955e+08 
  144700    293.57198       0.1447 -0.00018893614 -5.8766612e-05   -29.965116    1.1763619    105.82918    2030.2369 1.3308557e+08 
  144800    317.00811       0.1448 -0.00029358841 -1.1336535e-05   -30.059197    1.2702719    105.83843    2031.0102 1.3317058e+08 
  144900     312.7249       0.1449 -0.00012201783 -0.00014535043   -30.043523    1.2531089    105.84767    2032.0837 1.333026e+08 
  145000    309.58755        0.145 -0.00014419124 -7.8052819e-05   -30.032503    1.2405373    105.85692    2033.3658 1.3348077e+08 
  145100    306.62605       0.1451 -2.5883853e-05 -0.00015855512   -30.021966    1.2286703    105.86616    2034.9528 1.336923e+08 
  145200    295.50744       0.1452 -0.00027782548 3.2334681e-05   -29.977472    1.1841174    105.87541    2036.7719 1.3392558e+08 
  145300    295.92593       0.1453 -0.00022505778 -5.8916029e-05   -29.980079    1.1857943    105.88466     2038.481 1.3415816e+08 
  145400    295.95586       0.1454 -0.00029702723 6.8651165e-05   -29.979239    1.1859142     105.8939    2040.1997 1.343878e+08 
  145500    300.70898       0.1455 -0.00017285841 2.132257e-05    -29.99717    1.2049603    105.90315    2041.7362 1.3459286e+08 
  145600    306.50474       0.1456 -0.00025513338 9.907054e-05   -30.019327    1.2281843    105.91239    2043.1537 1.3477671e+08 
  145700    303.11174       0.1457 -0.00018962586 -8.7953889e-06   -30.005467    1.2145883    105.92164    2044.3706 1.3493653e+08 
  145800    292.88976       0.1458 -0.00029990794 9.9397439e-05   -29.963449    1.1736281    105.93089    2045.5363 1.3507909e+08 
  145900    289.60701       0.1459 -0.00016140084 0.0001088363   -29.949281    1.1604739    105.94013    2046.3969 1.3518297e+08 
  146000    285.04707        0.146 -7.9007267e-05 0.00011004975   -29.930397     1.142202    105.94938     2046.982 1.3523789e+08 
  146100    296.38493       0.1461 4.2593647e-05 2.2973054e-05   -29.975732    1.1876335    105.95862    2047.2984 1.3524155e+08 
  146200    306.37261       0.1462 -3.9365586e-05 -1.5776709e-05   -30.015575    1.2276548    105.96787    2047.7205 1.3524141e+08 
  146300    310.66047       0.1463 -0.00013437286 -0.00010659809   -30.032695    1.2448365    105.97712    2048.2164 1.3525561e+08 
  146400    306.74825       0.1464 -0.00027138885 -4.4490305e-05    -30.01709      1.22916    105.98636    2048.9343 1.3529533e+08 
  146500    309.96388       0.1465 -0.00015193928 -7.5500155e-05   -30.030191    1.2420453    105.99561    2049.7698 1.3535125e+08 
  146600    309.77401       0.1466 -0.00014418269 -9.7676116e-05   -30.030011    1.2412844    106.00485    2050.8546 1.3544305e+08 
  146700    299.71112       0.1467 -0.00022773605 -0.00010007893   -29.991306    1.2009618     106.0141    2052.2377 1.3558865e+08 
  146800    293.19979       0.1468 -0.00033152806 -2.0299469e-05   -29.966656    1.1748705    106.02335    2053.7346 1.3577848e+08 
  146900    296.01015       0.1469 -0.00030813058 7.159611e-06   -29.978279    1.1861318    106.03259    2055.2585 1.3599192e+08 
  147000     314.5557        0.147 -0.00026228393 -2.6018884e-06   -30.052613     1.260445    106.04184    2056.7848 1.3620684e+08 
  147100    316.15833       0.1471 -0.00017362551 -4.3745434e-06   -30.058685    1.2668668    106.05108    2058.1976 1.3640711e+08 
  147200    316.90012       0.1472 -0.00020322936 5.5513879e-05   -30.060475    1.2698392    106.06033    2059.6538 1.3659509e+08 
  147300    304.86478       0.1473 -0.00010005337 6.6810444e-05   -30.011488    1.2216128    106.06958    2060.9149 1.367581e+08 
  147400    278.24844       0.1474 6.6233168e-05 -2.5117046e-05   -29.904543    1.1149594    106.07882    2062.1366 1.3691103e+08 
  147500    266.26704       0.1475 -2.0343273e-05 0.00012397376   -29.855411    1.0669492    106.08807    2063.1365 1.3703627e+08 
  147600    273.79461       0.1476 -1.8320584e-05 7.0410428e-05   -29.884901    1.0971127    106.09731    2063.9779 1.3714334e+08 
  147700    294.94094       0.1477 -0.00011337324 6.3993635e-06   -29.969349    1.1818474    106.10656    2064.5987 1.3722711e+08 
  147800    310.62078       0.1478 -0.00021657464 -3.790391e-05   -30.032207    1.2446775    106.11581    2065.3641 1.3730811e+08 
  147900    317.38771       0.1479 -0.00017500228 -0.00010896993   -30.059741     1.271793    106.12505    2066.3003 1.3739742e+08 
  148000    309.90216        0.148 -0.00027567557 -1.8796272e-05   -30.030024     1.241798     106.1343    2067.3619 1.3750493e+08 
  148100    295.28555       0.1481 -0.0001775789 -7.1173203e-05   -29.972121    1.1832283    106.14354    2068.5337 1.3763352e+08 
  148200    289.21411       0.1482 -0.00031977402 0.00010098514   -29.947379    1.1588996    106.15279    2069.6708 1.3776721e+08 
  148300    300.35665       0.1483 -0.00023637938 1.5042445e-05   -29.991924    1.2035485    106.16204    2070.6837 1.3789744e+08 
  148400    306.12216       0.1484 -0.00021313586 -0.00012014095   -30.015812    1.2266512    106.17128    2071.7705 1.3803222e+08 
  148500    314.28243       0.1485 -0.00029757089 3.5063691e-06   -30.049058      1.25935    106.18053    2072.9961 1.3818331e+08 
  148600    311.25999       0.1486 -0.00012007965 -3.0210687e-05   -30.037481    1.2472389    106.18977    2074.2698 1.3835655e+08 
  148700    298.70675       0.1487 -0.00013457034 3.615113e-06   -29.987003    1.1969372    106.19902    2075.6348 1.3854202e+08 
  148800    290.78905       0.1488 2.1198176e-05 -0.00013096919   -29.956074    1.1652105    106.20827    2077.0286 1.3872229e+08 
  148900    276.22284       0.1489 -0.00024835993 6.5931221e-05   -29.897467    1.1068427    106.21751    2078.5285 1.3891121e+08 
  149000     280.6003        0.149 -0.00011518664 -2.7515461e-05   -29.915165    1.1243835    106.22676    2080.1165 1.3911292e+08 
  149100    282.96237       0.1491 -2.1951459e-05 -3.8592561e-05   -29.924146    1.1338485      106.236    2081.7745 1.3930866e+08 
  149200    295.49219       0.1492 -9.1058664e-05 7.2861747e-05   -29.973083    1.1840563    106.24525    2083.2496 1.3946607e+08 
  149300    315.62442       0.1493 -0.00019257123 0.00017227149    -30.05248    1.2647274    106.25449    2084.3068 1.3957752e+08 
  149400    310.74169       0.1494 -0.00017561984 2.9754193e-05   -30.032715     1.245162    106.26374    2085.1373 1.3967198e+08 
  149500    312.59987       0.1495 -0.00033104563 4.731683e-05   -30.040093    1.2526078    106.27299      2085.86 1.3975962e+08 
  149600    301.48685       0.1496 -0.00025302527 8.0748143e-05   -29.995306    1.2080772    106.28223    2086.4408 1.3983666e+08 
  149700    299.41731       0.1497 -0.00024019114 0.00010333547   -29.986758    1.1997845    106.29148    2086.7439 1.3988989e+08 
  149800    299.57328       0.1498 -9.1791366e-05 -9.6176162e-05   -29.987358    1.2004095    106.30072    2086.9329 1.3992551e+08 
  149900    296.79062       0.1499 -0.0001959959 -0.00012697154   -29.976711    1.1892592    106.30997    2087.5204 1.3999196e+08 
  150000    307.21338         0.15 -0.00029360942 -0.00013297364   -30.019656    1.2310238    106.31922    2088.4442 1.4010689e+08 
  150100    315.31184       0.1501 -0.00013646687 -0.00024067731    -30.05431    1.2634749    106.32846    2089.9166 1.4028129e+08 
  150200    308.32852       0.1502 -0.00015205766 -0.00010678926    -30.02741    1.2354923    106.33771     2091.867 1.4049015e+08 
  150300    301.15307       0.1503 -0.00017704256 4.3082977e-05   -29.997995    1.2067398    106.34695    2093.9291 1.407003e+08 
  150400    290.07425       0.1504 -7.3384473e-05 -7.3265916e-06   -29.953535    1.1623462     106.3562    2095.9645 1.4090691e+08 
  150500    283.10778       0.1505 -0.00013151166 4.9432437e-05   -29.925281    1.1344311    106.36545    2097.8862 1.4110761e+08 
  150600    284.36633       0.1506 6.2333017e-07 5.3346843e-05   -29.929653    1.1394742    106.37469    2099.5443 1.4129229e+08 
  150700    283.26776       0.1507 -3.9636997e-05 0.00013979421   -29.923811    1.1350722    106.38394    2101.0281 1.4146237e+08 
  150800    295.22823       0.1508 -0.00019023796 0.00023526365   -29.970583    1.1829986    106.39318    2101.8951 1.4158795e+08 
  150900    309.79846       0.1509 -0.00011934991 0.00010284933    -30.02868    1.2413824    106.40243    2102.2316 1.4167483e+08 
  151000    312.92604        0.151 -0.00019157907 -2.2092191e-06    -30.04092    1.2539148    106.41168    2102.4773 1.4175009e+08 
  151100    321.46521       0.1511 -0.00029515821 9.5394936e-05   -30.075302    1.2881318    106.42092    2102.6961 1.4182372e+08 
  151200    315.07797       0.1512 -0.00016834102 -1.4832406e-05   -30.050077    1.2625378    106.43017     2102.666 1.4189293e+08 
  151300    303.39275       0.1513 -9.6949774e-05 -0.00016254948   -30.003415    1.2157143    106.43941     2102.926 1.4198875e+08 
  151400    293.96773       0.1514 -0.00015135164 -0.00029310345   -29.966987    1.1779477    106.44866    2103.7567 1.4212365e+08 
  151500    298.32011       0.1515 -0.00043881977 -0.00016354351   -29.986517    1.1953879    106.45791    2105.2615 1.4231366e+08 
  151600    308.90652       0.1516 -0.00017500784 -0.00024984958   -30.032001    1.2378084    106.46715    2107.3055 1.4254774e+08 
  151700    300.73126       0.1517 -0.00019363738 -1.8818952e-05   -29.998979    1.2050495     106.4764    2109.7311 1.4280077e+08 
  151800    302.04899       0.1518 -9.9196271e-05 5.0955692e-05   -30.003086    1.2103298    106.48564     2112.102 1.430329e+08 
  151900     288.1985       0.1519 -6.8379796e-05 6.7388512e-05   -29.946665      1.15483    106.49489    2114.1536 1.4323116e+08 
  152000    277.67687        0.152 -0.00015021227 0.00016274942   -29.902952    1.1126691    106.50414    2115.9811 1.4341587e+08 
  152100    276.25068       0.1521 -0.00016221078  0.000203382    -29.89543    1.1069543    106.51338    2117.2732 1.4356054e+08 
  152200    288.58648       0.1522 -5.5683838e-05 0.00012524566   -29.943964    1.1563847    106.52263    2118.2047 1.4365936e+08 
  152300    287.36178       0.1523 -2.3441299e-05 8.0877481e-05   -29.938632    1.1514772    106.53187    2118.8411 1.4372519e+08 
  152400    288.99995       0.1524 -0.00021130131 0.00010932422   -29.945046    1.1580414    106.54112    2119.0446 1.4376822e+08 
  152500    306.67808       0.1525 -0.00017742308 -3.4387003e-05   -30.015917    1.2288788    106.55037    2119.0388 1.4380684e+08 
  152600    320.42659       0.1526 -0.00030166026 -1.8061324e-05   -30.071095      1.28397    106.55961    2119.0825 1.4385188e+08 
  152700    324.43071       0.1527 -0.00026569839 -1.2678031e-05   -30.087225    1.3000148    106.56886     2119.338 1.4390995e+08 
  152800    315.37781       0.1528 -0.0002770556 -3.7504653e-05   -30.051242    1.2637392     106.5781    2119.6576 1.4398162e+08 
  152900     304.1006       0.1529 -0.00026321123 -3.4126411e-05    -30.00671    1.2185507    106.58735    2120.0939 1.4407944e+08 
  153000    282.79254        0.153 4.9210636e-06 -0.00029095935   -29.922844     1.133168     106.5966    2120.9628 1.4422012e+08 
  153100    282.89107       0.1531 -0.00021674832 -4.7336784e-05   -29.923537    1.1335628    106.60584    2122.1911 1.4438744e+08 
  153200    298.48398       0.1532 -0.00010285554 -9.34603e-05   -29.986964    1.1960446    106.61509    2123.8911 1.4459117e+08 
  153300    319.89945       0.1533 -0.00015151096 -4.1690094e-05   -30.073451    1.2818577    106.62433    2125.6198 1.448034e+08 
  153400    315.64048       0.1534 -2.0437674e-05 -8.3724062e-05   -30.056762    1.2647917    106.63358    2127.4828 1.4502202e+08 
  153500    304.68535       0.1535 -0.00017764739 -1.0933199e-06   -30.012361    1.2208938    106.64282     2129.516 1.4523818e+08 
  153600    289.39431       0.1536 -8.2615801e-05 -6.4998908e-05   -29.951823    1.1596217    106.65207    2131.6439 1.4545125e+08 
  153700    282.16532       0.1537 -0.00033299619 0.00020857875   -29.920953    1.1306546    106.66132    2133.5299 1.4564739e+08 
  153800    274.23727       0.1538 3.5030926e-06 2.6586466e-05   -29.888355    1.0988864    106.67056    2134.9878 1.4580576e+08 
  153900    285.43566       0.1539 -0.000196778 0.00019604485   -29.931793    1.1437591    106.67981     2136.189 1.4592493e+08 
  154000    291.53793        0.154 -0.00018557188  0.000122532   -29.955795    1.1682113    106.68905    2136.9225 1.4600389e+08 
  154100    304.80647       0.1541 -0.0002537818 0.00016793906   -30.008954    1.2213792     106.6983    2137.1553 1.4606225e+08 
  154200    311.48974       0.1542 -5.5945401e-05 6.0829303e-05   -30.035557    1.2481595    106.70755    2137.0369 1.4611001e+08 
  154300    316.31629       0.1543 -4.3341032e-05 7.1521705e-05    -30.05474    1.2674998    106.71679    2136.7215 1.4613982e+08 
  154400    310.92662       0.1544 -6.4175922e-05 -7.6432864e-07   -30.033119     1.245903    106.72604    2136.2992 1.4615979e+08 
  154500    297.40691       0.1545 -0.00021821697 -6.4291713e-05   -29.979246    1.1917287    106.73528       2135.9 1.4619788e+08 
  154600    277.36455       0.1546 -0.00018210072 -0.0002694248   -29.899511    1.1114176    106.74453    2136.0873 1.4629499e+08 
  154700    278.77659       0.1547 -0.00017870986 -0.0003297357   -29.906881    1.1170758    106.75378     2137.105 1.4644403e+08 
  154800    300.42476       0.1548 -0.00011650984 -0.00028493493    -29.99662    1.2038214    106.76302    2139.0922 1.4664846e+08 
  154900    309.34935       0.1549 -0.00036907467 -1.9465952e-05   -30.033442    1.2395828    106.77227    2141.5044 1.4689733e+08 
  155000    315.51299        0.155 -0.00024054138 -9.482193e-05   -30.060289    1.2642809    106.78151    2144.0953 1.4718209e+08 
  155100    297.50387       0.1551 -0.00031108114 1.2326203e-05   -29.987871    1.1921172    106.79076    2146.7284 1.4747257e+08 
  155200    286.88475       0.1552 -0.00020431465 5.5032668e-05   -29.944135    1.1495657    106.80001    2149.3783 1.4775413e+08 
  155300    275.50381       0.1553 -0.00022109465 0.00022291266   -29.895956    1.1039615    106.80925    2151.4315 1.4798924e+08 
  155400    271.42738       0.1554 -0.00011394818 0.00024487688   -29.877784     1.087627     106.8185    2152.7687 1.4817489e+08 
  155500    274.81837       0.1555 -3.1399415e-05 0.00022745181   -29.889716    1.1012149    106.82774     2153.347 1.4829953e+08 
  155600    296.87652       0.1556 3.2296674e-05 0.00012821499   -29.977209    1.1896034    106.83699    2153.5721 1.4837698e+08 
  155700    304.28088       0.1557 -0.00010025074 7.4293577e-05   -30.006562    1.2192731    106.84624     2153.421 1.484062e+08 
  155800    309.16499       0.1558 -9.1867075e-05 3.7587281e-05   -30.025953     1.238844    106.85548    2152.9562 1.4840452e+08 
  155900    319.37509       0.1559 -0.00026294483 5.5266193e-05    -30.06693    1.2797566    106.86473    2152.6193 1.4839925e+08 
  156000    311.04074        0.156 -0.00010169554 -0.00021488061   -30.033124    1.2463603    106.87397    2152.4238 1.4839667e+08 
  156100       305.04       0.1561 -0.00020463756 -0.00019502621   -30.009479     1.222315    106.88322    2152.9186 1.4843256e+08 
  156200    283.01025       0.1562 -0.00022340416 -0.00018992906   -29.922216    1.1340403    106.89247      2153.94 1.4851367e+08 
  156300    276.47924       0.1563 -0.00017635094 -0.00019032733   -29.898023    1.1078701    106.90171    2155.5993 1.4867396e+08 
  156400    283.81259       0.1564 -0.00032615106 -1.6370412e-05   -29.928171    1.1372554    106.91096    2157.3472 1.4886789e+08 
  156500    304.65526       0.1565 -0.00023393783 -3.1850437e-05   -30.012252    1.2207733     106.9202    2159.1799 1.4907763e+08 
  156600    324.27961       0.1566 -0.000144454 -1.3659986e-05   -30.091332    1.2994093    106.92945    2161.1608 1.4930977e+08 
  156700    313.83735       0.1567 -0.0002259943 5.5780843e-05   -30.049359    1.2575665     106.9387    2163.0375 1.4955017e+08 
  156800    311.40116       0.1568 -0.00016818385 7.1256338e-05   -30.039048    1.2478045    106.94794    2164.7016 1.4977908e+08 
  156900    288.45327       0.1569 3.1826491e-05 -2.3110165e-05   -29.946272    1.1558508    106.95719    2166.2513 1.4998949e+08 
  157000    279.46656        0.157 8.187277e-06 4.7572952e-05   -29.909109    1.1198405    106.96643    2167.8905 1.5018432e+08 
  157100    274.16632       0.1571 -0.00014968484 0.00019625893   -29.886629    1.0986021    106.97568    2169.1147 1.5033823e+08 
  157200    292.79217       0.1572 1.478027e-05 0.00010252399   -29.960675    1.1732371    106.98493    2169.7531 1.504521e+08 
  157300     304.9124       0.1573 -0.00017964043 0.00022337932   -30.008689    1.2218036    106.99417    2169.9944 1.5053687e+08 
  157400    320.58617       0.1574 -0.00011739428 4.4261646e-05   -30.071252    1.2846095    107.00342    2169.7641 1.5057848e+08 
