ITEM: TIMESTEP
5000
ITEM: NUMBER OF ATOMS
32
ITEM: BOX BOUNDS pp pp pp
-4.2377792134022201e+01 5.0534792134222016e+01
-4.8375682580941664e+01 5.6532682581141479e+01
-4.7709451483990648e+01 5.5866451484190463e+01
ITEM: ATOMS id type xs ys zs
3 3 0.00593424 0.42206 0.111546
19 3 0.00525307 0.429673 0.120236
23 3 0.184242 0.0132225 0.152937
17 3 0.560162 0.852918 0.517104
28 3 0.929283 0.374087 0.530332
9 3 0.931522 0.383475 0.536936
13 1 0.569291 0.836707 0.521424
14 2 0.590444 0.844223 0.521523
11 2 0.576517 0.847109 0.541116
31 1 0.559388 0.858154 0.536164
15 1 0.602425 0.841424 0.532408
27 1 0.314884 0.877832 0.523695
7 1 0.578733 0.863713 0.519624
6 3 0.572614 0.871605 0.537956
4 1 0.58926 0.858797 0.545111
18 1 0.611568 0.862464 0.522426
12 3 0.278613 0.0830768 0.785322
29 1 0.232174 0.787757 0.765668
26 2 0.29583 0.0550373 0.813543
22 1 0.28967 0.0464607 0.825619
2 2 0.281673 0.0719458 0.799571
20 1 0.279882 0.0719563 0.827137
5 2 0.295524 0.0780413 0.816415
32 1 0.307784 0.0874121 0.821205
24 1 0.655018 0.701247 0.827506
8 2 0.855879 0.958738 0.877573
10 1 0.882886 0.975849 0.881646
16 2 0.882994 0.975799 0.881243
30 1 0.104186 0.794243 0.924082
21 2 0.842631 0.125655 0.940048
1 1 0.837821 0.135462 0.958689
25 1 0.860793 0.142691 0.944126
ITEM: TIMESTEP
10000
ITEM: NUMBER OF ATOMS
32
ITEM: BOX BOUNDS pp pp pp
-4.2608940965418967e+01 5.0765940965618782e+01
-5.4938693810552174e+01 6.3095693810751989e+01
-5.4617623618700613e+01 6.2774623618900428e+01
ITEM: ATOMS id type xs ys zs
3 3 0.00487928 0.422644 0.112202
19 3 0.00701526 0.429206 0.119977
23 3 0.184432 0.0132526 0.153231
27 1 0.323412 0.847073 0.465739
28 3 0.929535 0.374565 0.530779
9 3 0.931201 0.382979 0.536468
13 1 0.572447 0.835015 0.521484
14 2 0.586143 0.847099 0.521983
11 2 0.583736 0.84826 0.541577
17 3 0.562074 0.849781 0.519564
31 1 0.562781 0.849092 0.535824
15 1 0.597915 0.840054 0.532288
7 1 0.579721 0.859675 0.522404
4 1 0.589025 0.861496 0.543879
6 3 0.569137 0.864778 0.536849
18 1 0.611958 0.861673 0.527622
29 1 0.22907 0.785632 0.768253
12 3 0.274223 0.0684965 0.792434
2 2 0.288155 0.0758253 0.800585
20 1 0.276273 0.0766777 0.808516
26 2 0.292798 0.0598251 0.813541
22 1 0.309178 0.0750563 0.810494
5 2 0.298431 0.0787303 0.820248
32 1 0.286101 0.0907135 0.822502
24 1 0.650464 0.696819 0.826425
8 2 0.853214 0.962174 0.877472
10 1 0.888448 0.969837 0.878027
16 2 0.886805 0.970343 0.879034
21 2 0.839615 0.129511 0.941779
1 1 0.837124 0.148246 0.951317
25 1 0.863294 0.133634 0.946806
30 1 0.0517615 0.747285 0.95284
ITEM: TIMESTEP
15000
ITEM: NUMBER OF ATOMS
32
ITEM: BOX BOUNDS pp pp pp
-4.2840089796815732e+01 5.0997089797015548e+01
-7.5236447848486605e+01 8.3393447848685881e+01
-8.8096393415937129e+01 9.6253393416136262e+01
ITEM: ATOMS id type xs ys zs
3 3 0.00498895 0.423855 0.113488
19 3 0.00724303 0.42804 0.11884
23 3 0.184523 0.0132642 0.153342
27 1 0.32748 0.835254 0.443904
13 1 0.580845 0.839764 0.525451
14 2 0.585099 0.849671 0.524011
17 3 0.56545 0.847535 0.525385
7 1 0.575224 0.857785 0.525986
28 3 0.92989 0.375809 0.53156
9 3 0.930814 0.381729 0.535679
15 1 0.595637 0.839715 0.536956
11 2 0.584871 0.848823 0.537909
31 1 0.567627 0.847743 0.535895
6 3 0.568724 0.85998 0.53626
4 1 0.589502 0.859342 0.537969
18 1 0.608282 0.852027 0.528464
29 1 0.227589 0.784815 0.769227
12 3 0.276943 0.0762401 0.799137
22 1 0.300492 0.0695154 0.800588
2 2 0.292721 0.0740203 0.804947
20 1 0.280178 0.0691421 0.809242
26 2 0.295428 0.0652967 0.813773
5 2 0.293939 0.0792051 0.816374
32 1 0.279623 0.0827719 0.818935
24 1 0.648292 0.695117 0.826017
16 2 0.826661 0.942002 0.846254
8 2 0.851989 0.962832 0.87679
21 2 0.838396 0.131728 0.942738
1 1 0.839957 0.145839 0.945176
25 1 0.859584 0.131659 0.948751
30 1 0.0267485 0.729242 0.963674
10 1 0.381167 0.180498 0.134636
ITEM: TIMESTEP
20000
ITEM: NUMBER OF ATOMS
32
ITEM: BOX BOUNDS pp pp pp
-4.3071238628212498e+01 5.1228238628412313e+01
-1.0389170981228824e+02 1.1204870981248730e+02
-1.3474559048123069e+02 1.4290259048151756e+02
ITEM: ATOMS id type xs ys zs
3 3 0.00592485 0.424796 0.114187
19 3 0.00642089 0.427105 0.118157
23 3 0.184554 0.0132659 0.153353
10 1 0.207569 0.374301 0.309081
27 1 0.328852 0.833498 0.441745
28 3 0.930371 0.376885 0.532006
9 3 0.930322 0.380652 0.535233
13 1 0.577376 0.842436 0.52697
17 3 0.56541 0.849518 0.527105
14 2 0.584788 0.849178 0.526626
31 1 0.566655 0.848572 0.534248
11 2 0.585071 0.848792 0.535616
15 1 0.596847 0.843582 0.533754
7 1 0.578591 0.855965 0.527884
6 3 0.569483 0.857489 0.534238
4 1 0.588521 0.856252 0.536673
18 1 0.611992 0.854582 0.529967
29 1 0.22709 0.784694 0.769324
12 3 0.280739 0.0749185 0.801865
2 2 0.293435 0.0749162 0.806908
22 1 0.307998 0.0717835 0.806433
20 1 0.279157 0.0719978 0.809388
5 2 0.288033 0.0766206 0.814805
26 2 0.297425 0.0672976 0.812755
32 1 0.295217 0.082622 0.812433
24 1 0.64756 0.694864 0.825977
16 2 0.722867 0.91856 0.82611
8 2 0.851675 0.961631 0.874792
21 2 0.838194 0.132317 0.942811
1 1 0.841454 0.142564 0.944706
25 1 0.856129 0.13222 0.948974
30 1 0.0183158 0.726562 0.964745
ITEM: TIMESTEP
25000
ITEM: NUMBER OF ATOMS
32
ITEM: BOX BOUNDS pp pp pp
-4.3302387459609264e+01 5.1459387459809079e+01
-2.0034217316465424e+02 2.0849917316486983e+02
-1.6610247025875344e+02 1.7425947025938319e+02
ITEM: ATOMS id type xs ys zs
3 3 0.00636995 0.42519 0.114662
19 3 0.00603554 0.426714 0.117686
23 3 0.18457 0.0132665 0.153357
10 1 0.641622 0.441446 0.364582
27 1 0.329572 0.83289 0.441059
13 1 0.578703 0.844232 0.527454
17 3 0.564826 0.849413 0.527431
28 3 0.930523 0.377569 0.532618
9 3 0.930163 0.379968 0.53462
14 2 0.584014 0.849261 0.527584
7 1 0.583528 0.85475 0.528656
31 1 0.568176 0.849418 0.53332
11 2 0.585322 0.84882 0.534836
6 3 0.570224 0.856462 0.533675
4 1 0.588374 0.855505 0.536101
15 1 0.596843 0.845143 0.533019
18 1 0.610044 0.853963 0.530282
29 1 0.226827 0.784652 0.769354
20 1 0.275103 0.0684556 0.809067
26 2 0.297026 0.0679144 0.813122
12 3 0.254143 0.0719489 0.794775
32 1 0.293147 0.0817911 0.810929
22 1 0.114744 0.934368 0.856255
2 2 0.203 0.0936443 0.803884
5 2 0.285831 0.0762464 0.813498
16 2 0.668351 0.910438 0.819701
24 1 0.647175 0.694777 0.825964
8 2 0.85151 0.961215 0.874156
21 2 0.838225 0.132511 0.942871
1 1 0.842153 0.14146 0.944613
25 1 0.853322 0.132471 0.948699
30 1 0.0138867 0.725633 0.965086
ITEM: TIMESTEP
30000
ITEM: NUMBER OF ATOMS
32
ITEM: BOX BOUNDS pp pp pp
-4.3533536291006037e+01 5.1690536291205852e+01
-3.2183561342553008e+02 3.2999261342579075e+02
-1.8930615940501008e+02 1.9746315940599459e+02
ITEM: ATOMS id type xs ys zs
3 3 0.00634289 0.42524 0.115171
19 3 0.00606782 0.426664 0.117177
23 3 0.184571 0.0132665 0.153357
10 1 0.679535 0.442566 0.367789
27 1 0.329635 0.83288 0.441019
13 1 0.580615 0.84703 0.529109
14 2 0.584101 0.849824 0.527955
17 3 0.56475 0.84953 0.528137
7 1 0.578462 0.852225 0.528465
18 1 0.613465 0.85 0.530658
28 3 0.930316 0.377839 0.533585
9 3 0.93037 0.379698 0.533653
11 2 0.584635 0.849778 0.534201
31 1 0.567397 0.849935 0.533231
15 1 0.594394 0.847565 0.534353
6 3 0.572057 0.852857 0.533175
4 1 0.592208 0.852253 0.534638
29 1 0.226805 0.784651 0.769356
12 3 0.191331 0.067686 0.775051
2 2 0.999027 0.107561 0.798453
26 2 0.294012 0.0691874 0.812651
20 1 0.276474 0.0706438 0.809892
32 1 0.286341 0.0974064 0.806783
5 2 0.287811 0.0726368 0.814913
16 2 0.663589 0.910302 0.819331
24 1 0.647141 0.694775 0.825963
8 2 0.851496 0.961208 0.874119
22 1 0.887904 0.834753 0.940571
21 2 0.838624 0.132965 0.94305
1 1 0.839444 0.136715 0.943252
25 1 0.852708 0.133633 0.948651
30 1 0.0134999 0.725618 0.965106
ITEM: TIMESTEP
35000
ITEM: NUMBER OF ATOMS
32
ITEM: BOX BOUNDS pp pp pp
-4.3764685122402803e+01 5.1921685122602618e+01
-3.4394616988837402e+02 3.5210316988863826e+02
-1.9174802668907438e+02 1.9990502669035698e+02
ITEM: ATOMS id type xs ys zs
3 3 0.00633688 0.42525 0.11526
19 3 0.00607476 0.426654 0.117088
23 3 0.184571 0.0132665 0.153357
10 1 0.686287 0.44269 0.368295
27 1 0.329646 0.832879 0.441013
17 3 0.565864 0.850035 0.527795
13 1 0.574857 0.847126 0.52824
14 2 0.584061 0.849494 0.528471
7 1 0.582589 0.85213 0.528477
28 3 0.930279 0.377902 0.533744
9 3 0.930407 0.379635 0.533494
31 1 0.567587 0.850039 0.532896
15 1 0.595236 0.848049 0.53242
11 2 0.584571 0.849777 0.534366
18 1 0.612261 0.851218 0.530094
6 3 0.572746 0.852722 0.532749
4 1 0.590709 0.852216 0.534709
12 3 0.180145 0.067214 0.771936
29 1 0.226801 0.784651 0.769356
2 2 0.9627 0.109103 0.797596
32 1 0.284723 0.113554 0.801064
26 2 0.294703 0.0684607 0.812353
20 1 0.277097 0.0710698 0.810736
5 2 0.28694 0.07126 0.815909
24 1 0.647135 0.694775 0.825963
16 2 0.662741 0.910287 0.819273
8 2 0.851493 0.961207 0.874113
21 2 0.838911 0.133027 0.943168
1 1 0.839465 0.136297 0.943249
25 1 0.850392 0.133563 0.947718
22 1 0.203697 0.823723 0.953884
30 1 0.013431 0.725616 0.965109
ITEM: TIMESTEP
40000
ITEM: NUMBER OF ATOMS
32
ITEM: BOX BOUNDS pp pp pp
-4.3995833953799568e+01 5.2152833953999384e+01
-3.6069603693231880e+02 3.6885303693258595e+02
-1.9458764582803150e+02 2.0274464582961372e+02
ITEM: ATOMS id type xs ys zs
3 3 0.00633139 0.425264 0.115329
19 3 0.00608088 0.42664 0.117019
23 3 0.184572 0.0132665 0.153357
10 1 0.690909 0.442766 0.368635
27 1 0.329654 0.832878 0.441008
28 3 0.930255 0.37795 0.533849
9 3 0.930431 0.379587 0.533389
13 1 0.576149 0.847356 0.528141
15 1 0.59449 0.847958 0.533535
17 3 0.566139 0.849966 0.527519
31 1 0.566585 0.85007 0.532719
14 2 0.583946 0.849613 0.528421
7 1 0.581361 0.852061 0.528254
11 2 0.584939 0.849808 0.534482
6 3 0.573038 0.852546 0.532818
18 1 0.610066 0.850811 0.529589
4 1 0.591297 0.851899 0.534555
12 3 0.172487 0.0669233 0.769847
29 1 0.226798 0.784651 0.769357
2 2 0.937834 0.110051 0.797021
32 1 0.283615 0.123496 0.797226
20 1 0.278739 0.0705845 0.809689
26 2 0.294571 0.0681688 0.812124
5 2 0.286795 0.0703511 0.816811
24 1 0.647131 0.694775 0.825963
16 2 0.66216 0.910278 0.819233
8 2 0.851492 0.961207 0.87411
21 2 0.838795 0.133032 0.943131
1 1 0.839422 0.136277 0.943194
25 1 0.851333 0.133538 0.94807
30 1 0.0133838 0.725615 0.965111
22 1 0.419865 0.81693 0.962817
ITEM: TIMESTEP
45000
ITEM: NUMBER OF ATOMS
32
ITEM: BOX BOUNDS pp pp pp
-4.4226982785196334e+01 5.2383982785396149e+01
-3.7983183035500315e+02 3.8798883035527319e+02
-1.9645023604014568e+02 2.0460723604202934e+02
ITEM: ATOMS id type xs ys zs
3 3 0.00632612 0.425277 0.115392
19 3 0.00608674 0.426627 0.116956
23 3 0.184572 0.0132665 0.153357
10 1 0.695093 0.442829 0.368937
27 1 0.329661 0.832878 0.441005
13 1 0.574652 0.847523 0.528351
17 3 0.566043 0.849997 0.527595
14 2 0.583294 0.849552 0.528531
7 1 0.581799 0.851874 0.528408
28 3 0.930233 0.377997 0.53394
9 3 0.930453 0.37954 0.533298
31 1 0.566718 0.850047 0.532681
15 1 0.595065 0.848187 0.533013
11 2 0.585572 0.84988 0.534278
18 1 0.613459 0.850637 0.530816
6 3 0.572241 0.852452 0.53265
4 1 0.590481 0.851949 0.53448
12 3 0.165556 0.0666838 0.767989
29 1 0.226795 0.784651 0.769357
32 1 0.282613 0.13169 0.793815
2 2 0.915326 0.110833 0.796509
20 1 0.278372 0.0709426 0.812053
26 2 0.294882 0.0678985 0.812141
5 2 0.286467 0.0695362 0.816976
16 2 0.661635 0.91027 0.819198
24 1 0.647128 0.694775 0.825963
8 2 0.85149 0.961206 0.874106
21 2 0.838687 0.133039 0.943098
25 1 0.851926 0.133694 0.948255
1 1 0.839665 0.136068 0.943267
30 1 0.0133411 0.725614 0.965113
22 1 0.615528 0.811333 0.970757
ITEM: TIMESTEP
50000
ITEM: NUMBER OF ATOMS
32
ITEM: BOX BOUNDS pp pp pp
-4.4458131616593100e+01 5.2615131616792915e+01
-4.0218253470786192e+02 4.1033953470813577e+02
-1.9931401738772990e+02 2.0747101738992018e+02
ITEM: ATOMS id type xs ys zs
3 3 0.00631895 0.425299 0.115466
19 3 0.00609448 0.426605 0.116882
23 3 0.184572 0.0132665 0.153357
10 1 0.699296 0.442886 0.369234
27 1 0.329668 0.832877 0.441001
17 3 0.566499 0.849908 0.527652
13 1 0.576002 0.847605 0.52877
14 2 0.584017 0.84961 0.528568
7 1 0.581289 0.851767 0.528397
9 3 0.930472 0.379483 0.533214
28 3 0.930214 0.378054 0.534024
31 1 0.567611 0.850177 0.532545
15 1 0.59504 0.848442 0.533254
11 2 0.584263 0.849831 0.534341
18 1 0.611602 0.850602 0.52917
6 3 0.573456 0.852473 0.532798
4 1 0.591441 0.851701 0.534355
12 3 0.158593 0.0664668 0.766164
29 1 0.226793 0.784651 0.769357
2 2 0.892715 0.111542 0.796007
32 1 0.281606 0.13911 0.790463
20 1 0.283643 0.0698811 0.812874
26 2 0.294131 0.0678349 0.812285
5 2 0.286489 0.0687919 0.8172
16 2 0.661107 0.910263 0.819164
24 1 0.647124 0.694775 0.825963
8 2 0.851488 0.961206 0.874103
21 2 0.838891 0.133077 0.943188
25 1 0.850574 0.133595 0.947675
1 1 0.839381 0.135867 0.943143
30 1 0.0132982 0.725613 0.965114
22 1 0.81209 0.806263 0.978559
ITEM: TIMESTEP
55000
ITEM: NUMBER OF ATOMS
32
ITEM: BOX BOUNDS pp pp pp
-4.4689280447989866e+01 5.2846280448189681e+01
-4.2935597184519963e+02 4.3751297184547951e+02
-2.0287329178214395e+02 2.1103029178465755e+02
ITEM: ATOMS id type xs ys zs
3 3 0.00631089 0.425322 0.115544
19 3 0.00610314 0.426582 0.116804
23 3 0.184572 0.0132665 0.153357
10 1 0.703675 0.442939 0.369535
27 1 0.329675 0.832877 0.440997
17 3 0.56589 0.849984 0.527901
14 2 0.583688 0.849637 0.52846
7 1 0.581673 0.851721 0.528355
28 3 0.930194 0.37811 0.534106
9 3 0.930492 0.379427 0.533131
13 1 0.575177 0.847811 0.528883
15 1 0.593659 0.848245 0.533373
31 1 0.567173 0.850146 0.532675
6 3 0.572889 0.852271 0.532524
11 2 0.58543 0.849862 0.534218
4 1 0.590363 0.851713 0.53421
18 1 0.611037 0.8505 0.530883
12 3 0.151337 0.0662658 0.764314
29 1 0.22679 0.784651 0.769357
32 1 0.280557 0.145986 0.787064
2 2 0.869152 0.112198 0.795497
26 2 0.294096 0.0676661 0.812368
20 1 0.284858 0.0696774 0.813477
5 2 0.286304 0.0681136 0.817519
24 1 0.64712 0.694775 0.825963
16 2 0.660557 0.910257 0.819129
8 2 0.851487 0.961206 0.874099
21 2 0.838801 0.133073 0.943167
25 1 0.851384 0.133568 0.947911
1 1 0.839267 0.135928 0.943067
30 1 0.0132535 0.725613 0.965116
22 1 0.0169196 0.801566 0.98647
ITEM: TIMESTEP
60000
ITEM: NUMBER OF ATOMS
32
ITEM: BOX BOUNDS pp pp pp
-4.4920429279386632e+01 5.3077429279586447e+01
-4.6002117751389090e+02 4.6817817751417618e+02
-2.0726687967548474e+02 2.1542387967833037e+02
ITEM: ATOMS id type xs ys zs
3 3 0.00630157 0.425349 0.115629
19 3 0.0061131 0.426555 0.116719
23 3 0.184572 0.0132665 0.153357
10 1 0.708262 0.442987 0.36984
27 1 0.329683 0.832876 0.440994
17 3 0.566971 0.850084 0.52769
7 1 0.583327 0.851505 0.528472
28 3 0.930176 0.37817 0.534184
9 3 0.93051 0.379367 0.533054
31 1 0.567254 0.850098 0.532603
13 1 0.573951 0.847948 0.52853
15 1 0.595287 0.848625 0.533435
14 2 0.583659 0.849594 0.528662
11 2 0.58463 0.849874 0.53424
18 1 0.610531 0.850687 0.529719
6 3 0.573944 0.852144 0.532455
4 1 0.590389 0.85158 0.534492
12 3 0.143738 0.0660806 0.762437
29 1 0.226787 0.784651 0.769357
32 1 0.279458 0.152323 0.783618
2 2 0.844475 0.112803 0.794981
26 2 0.294516 0.0674409 0.812347
20 1 0.283598 0.0697621 0.815554
5 2 0.285974 0.0675238 0.817763
16 2 0.659981 0.910251 0.819094
24 1 0.647116 0.694775 0.825963
8 2 0.851485 0.961205 0.874096
21 2 0.838711 0.133097 0.943149
25 1 0.851497 0.133759 0.947818
1 1 0.839849 0.135545 0.943309
30 1 0.0132067 0.725612 0.965118
22 1 0.231442 0.797237 0.994493
ITEM: TIMESTEP
65000
ITEM: NUMBER OF ATOMS
32
ITEM: BOX BOUNDS pp pp pp
-4.5151578110783397e+01 5.3308578110983213e+01
-4.9356920981036046e+02 5.0172620981065126e+02
-2.1186859772807441e+02 2.2002559773126876e+02
ITEM: ATOMS id type xs ys zs
22 1 0.454217 0.793303 0.00252726
3 3 0.00629105 0.425379 0.115718
19 3 0.00612427 0.426525 0.11663
23 3 0.184572 0.0132665 0.153357
10 1 0.713025 0.443032 0.370145
27 1 0.329691 0.832876 0.44099
17 3 0.566844 0.850071 0.52813
13 1 0.573604 0.848121 0.52903
14 2 0.583612 0.849591 0.528676
18 1 0.610685 0.850621 0.531022
7 1 0.583622 0.851368 0.528533
28 3 0.930158 0.378229 0.534258
9 3 0.930528 0.379308 0.532979
31 1 0.566975 0.850204 0.532698
15 1 0.594287 0.848619 0.532803
11 2 0.584987 0.849919 0.533975
4 1 0.589657 0.851491 0.534446
6 3 0.573844 0.852018 0.53232
12 3 0.135847 0.0659122 0.760557
29 1 0.226784 0.784651 0.769357
32 1 0.278316 0.158082 0.780166
2 2 0.818849 0.113352 0.794463
26 2 0.29436 0.0674228 0.812523
20 1 0.288827 0.0694609 0.814725
5 2 0.285397 0.0668489 0.818178
16 2 0.659383 0.910246 0.819059
24 1 0.647112 0.694775 0.825963
8 2 0.851483 0.961205 0.874092
21 2 0.83884 0.13313 0.943214
1 1 0.838906 0.135437 0.942972
25 1 0.851397 0.133605 0.947635
30 1 0.0131581 0.725611 0.96512
ITEM: TIMESTEP
70000
ITEM: NUMBER OF ATOMS
32
ITEM: BOX BOUNDS pp pp pp
-4.5382726942180163e+01 5.3539726942379978e+01
-5.2872936539779926e+02 5.3688636539813388e+02
-2.1689809361985391e+02 2.2505509362340655e+02
ITEM: ATOMS id type xs ys zs
22 1 0.683114 0.789761 0.0104551
3 3 0.00628049 0.425404 0.115805
19 3 0.0061355 0.4265 0.116543
23 3 0.184573 0.0132665 0.153357
10 1 0.717919 0.443072 0.370447
27 1 0.329699 0.832875 0.440986
28 3 0.930139 0.378283 0.53433
9 3 0.930546 0.379254 0.532908
13 1 0.574585 0.848186 0.529413
14 2 0.584121 0.849643 0.528817
17 3 0.566783 0.849987 0.527895
11 2 0.584165 0.849914 0.533991
31 1 0.566017 0.850303 0.5325
18 1 0.611321 0.850619 0.529959
15 1 0.59367 0.848681 0.532957
7 1 0.582883 0.851347 0.528522
6 3 0.574567 0.851941 0.532477
4 1 0.59133 0.851292 0.534122
12 3 0.127738 0.0657606 0.758703
29 1 0.226781 0.784651 0.769358
32 1 0.277144 0.163266 0.77676
2 2 0.792518 0.113847 0.793953
26 2 0.294333 0.0672731 0.81281
5 2 0.285384 0.0664201 0.818009
20 1 0.288563 0.068831 0.817591
16 2 0.658768 0.910241 0.819024
24 1 0.647107 0.694775 0.825963
8 2 0.851481 0.961205 0.874089
21 2 0.838799 0.133123 0.943223
1 1 0.839048 0.135464 0.943026
25 1 0.85156 0.133641 0.94751
30 1 0.0131082 0.725611 0.965122
ITEM: TIMESTEP
75000
ITEM: NUMBER OF ATOMS
32
ITEM: BOX BOUNDS pp pp pp
-4.5613875773576929e+01 5.3770875773776744e+01
-5.6445831905825833e+02 5.7261531905860056e+02
-2.2219185257578789e+02 2.3034885257970546e+02
ITEM: ATOMS id type xs ys zs
22 1 0.916163 0.786591 0.0181989
3 3 0.00626886 0.425433 0.115894
19 3 0.00614782 0.426471 0.116454
23 3 0.184573 0.0132665 0.153357
10 1 0.722902 0.443107 0.370741
27 1 0.329707 0.832875 0.440982
13 1 0.573905 0.848327 0.529324
14 2 0.583768 0.849666 0.528697
17 3 0.566395 0.850034 0.527936
7 1 0.58306 0.851304 0.528498
28 3 0.930123 0.378336 0.534393
9 3 0.930562 0.379201 0.532845
11 2 0.584662 0.849924 0.534059
31 1 0.567847 0.850196 0.532483
18 1 0.610728 0.850456 0.530806
15 1 0.593514 0.848743 0.533125
6 3 0.574324 0.851819 0.532268
4 1 0.591091 0.85131 0.534033
12 3 0.119483 0.065625 0.756891
29 1 0.226778 0.784651 0.769358
32 1 0.27595 0.167907 0.773433
2 2 0.765709 0.11429 0.793454
5 2 0.285295 0.0659875 0.817801
26 2 0.293924 0.0672009 0.813473
20 1 0.291907 0.0681637 0.817693
16 2 0.658142 0.910237 0.81899
24 1 0.647103 0.694775 0.825963
8 2 0.851479 0.961205 0.874085
21 2 0.838719 0.133143 0.943214
1 1 0.839688 0.135157 0.943298
25 1 0.851528 0.133785 0.947312
30 1 0.0130573 0.72561 0.965124
ITEM: TIMESTEP
80000
ITEM: NUMBER OF ATOMS
32
ITEM: BOX BOUNDS pp pp pp
-4.5845024604973695e+01 5.4002024605173510e+01
-5.9971716295395845e+02 6.0787416295430933e+02
-2.2777566869175922e+02 2.3593266869605333e+02
ITEM: ATOMS id type xs ys zs
22 1 0.151645 0.783755 0.0256877
3 3 0.00625748 0.425456 0.115979
19 3 0.0061599 0.426448 0.11637
23 3 0.184573 0.0132665 0.153357
10 1 0.727937 0.443139 0.371026
27 1 0.329715 0.832875 0.440979
9 3 0.930579 0.379153 0.532783
13 1 0.574266 0.848437 0.529411
14 2 0.584012 0.849697 0.528893
17 3 0.567337 0.850042 0.528125
7 1 0.583495 0.851161 0.528418
31 1 0.567769 0.850288 0.532572
6 3 0.574777 0.851756 0.532071
18 1 0.611166 0.850457 0.529951
28 3 0.930107 0.378384 0.534455
15 1 0.593385 0.848777 0.533033
11 2 0.58391 0.849903 0.533979
4 1 0.590887 0.851268 0.533983
12 3 0.111141 0.0655036 0.75514
29 1 0.226775 0.784651 0.769358
32 1 0.274743 0.172059 0.770216
2 2 0.738621 0.114686 0.792971
26 2 0.293552 0.0670344 0.814011
5 2 0.285658 0.0657413 0.817443
20 1 0.29138 0.0672589 0.819856
16 2 0.65751 0.910233 0.818957
24 1 0.647098 0.694775 0.825963
8 2 0.851477 0.961205 0.874082
21 2 0.83878 0.13317 0.943256
25 1 0.852537 0.133622 0.947445
1 1 0.838173 0.135106 0.942832
30 1 0.013006 0.72561 0.965125
ITEM: TIMESTEP
85000
ITEM: NUMBER OF ATOMS
32
ITEM: BOX BOUNDS pp pp pp
-4.6076173436370468e+01 5.4233173436570283e+01
-6.3525415168239920e+02 6.4341115168275985e+02
-2.3307660715774898e+02 2.4123360716242325e+02
ITEM: ATOMS id type xs ys zs
22 1 0.388166 0.781213 0.0328884
3 3 0.00624563 0.425481 0.116062
19 3 0.00617244 0.426423 0.116287
23 3 0.184573 0.0132665 0.153357
10 1 0.732995 0.443168 0.3713
27 1 0.329724 0.832874 0.440975
13 1 0.572941 0.848519 0.529217
14 2 0.583494 0.849666 0.528998
17 3 0.567361 0.850095 0.528268
7 1 0.584342 0.851035 0.52872
31 1 0.567489 0.850274 0.532458
6 3 0.574328 0.851647 0.531921
18 1 0.611272 0.850426 0.531003
28 3 0.930092 0.37843 0.534507
9 3 0.930593 0.379107 0.532731
15 1 0.593567 0.848893 0.53244
11 2 0.584694 0.849945 0.533812
4 1 0.590245 0.851279 0.534045
12 3 0.102763 0.0653948 0.753455
32 1 0.273532 0.175779 0.767123
29 1 0.226772 0.784651 0.769358
2 2 0.711413 0.115041 0.792508
5 2 0.285699 0.0654722 0.817115
26 2 0.293175 0.0669025 0.814852
20 1 0.293437 0.0666959 0.819244
16 2 0.656875 0.910229 0.818926
24 1 0.647094 0.694775 0.825963
8 2 0.851476 0.961204 0.874079
21 2 0.83881 0.133168 0.943287
25 1 0.851708 0.13369 0.947003
1 1 0.838747 0.135055 0.943032
30 1 0.0129544 0.725609 0.965127
ITEM: TIMESTEP
90000
ITEM: NUMBER OF ATOMS
32
ITEM: BOX BOUNDS pp pp pp
-4.6307322267767233e+01 5.4464322267967049e+01
-6.7043414035459716e+02 6.7859114035496748e+02
-2.3938199964533612e+02 2.4753899965041433e+02
ITEM: ATOMS id type xs ys zs
22 1 0.624526 0.778929 0.0397608
3 3 0.00623367 0.425505 0.116141
19 3 0.0061851 0.426399 0.116207
23 3 0.184573 0.0132665 0.153357
10 1 0.738048 0.443193 0.371562
27 1 0.329732 0.832874 0.440972
28 3 0.930079 0.378473 0.534552
9 3 0.930606 0.379064 0.532686
13 1 0.57236 0.848564 0.529205
14 2 0.583341 0.849707 0.529196
15 1 0.593813 0.84902 0.532899
17 3 0.567551 0.850111 0.527853
7 1 0.584809 0.851051 0.528698
11 2 0.584423 0.849928 0.533841
31 1 0.567311 0.850234 0.532146
6 3 0.575339 0.851552 0.531966
18 1 0.611561 0.850461 0.530021
4 1 0.590613 0.851093 0.533977
12 3 0.09439 0.0652971 0.751847
32 1 0.272321 0.179122 0.76417
29 1 0.226769 0.784651 0.769358
2 2 0.684224 0.115361 0.792065
26 2 0.29304 0.0667634 0.815572
5 2 0.285386 0.0652168 0.816777
20 1 0.296383 0.066458 0.819505
16 2 0.65624 0.910226 0.818895
24 1 0.647089 0.694775 0.825962
8 2 0.851474 0.961204 0.874076
21 2 0.838714 0.133174 0.943284
1 1 0.838985 0.134942 0.943141
25 1 0.852211 0.133758 0.946917
30 1 0.0129028 0.725609 0.965129
ITEM: TIMESTEP
95000
ITEM: NUMBER OF ATOMS
32
ITEM: BOX BOUNDS pp pp pp
-4.6538471099163999e+01 5.4695471099363814e+01
-7.0497466234499416e+02 7.1313166234537277e+02
-2.4570869354784458e+02 2.5386569355333955e+02
ITEM: ATOMS id type xs ys zs
22 1 0.860231 0.776865 0.0463083
3 3 0.0062218 0.425524 0.116217
19 3 0.00619766 0.42638 0.116132
23 3 0.184573 0.0132665 0.153357
10 1 0.743088 0.443216 0.371811
27 1 0.329741 0.832874 0.440969
9 3 0.930618 0.379023 0.532647
13 1 0.573076 0.848678 0.529038
14 2 0.583185 0.849721 0.529147
15 1 0.593862 0.848998 0.532872
17 3 0.567154 0.850097 0.528355
7 1 0.58419 0.85097 0.528696
11 2 0.584828 0.849946 0.533778
31 1 0.56733 0.850222 0.532178
6 3 0.574631 0.851505 0.531694
18 1 0.6114 0.850318 0.530913
4 1 0.591213 0.851119 0.533601
28 3 0.930068 0.378514 0.53459
12 3 0.0860405 0.0652088 0.750316
32 1 0.271113 0.182143 0.761357
29 1 0.226766 0.784651 0.769358
2 2 0.65711 0.115649 0.791643
5 2 0.285315 0.0650416 0.816549
20 1 0.296938 0.06567 0.819908
26 2 0.292964 0.0666548 0.816146
16 2 0.655607 0.910224 0.818867
24 1 0.647085 0.694775 0.825962
8 2 0.851472 0.961204 0.874073
21 2 0.838755 0.133201 0.943316
1 1 0.837349 0.13483 0.942771
25 1 0.8535 0.133651 0.947033
30 1 0.0128514 0.725609 0.96513
ITEM: TIMESTEP
100000
ITEM: NUMBER OF ATOMS
32
ITEM: BOX BOUNDS pp pp pp
-4.6769619930560765e+01 5.4926619930760580e+01
-7.3859638326029176e+02 7.4675338326067833e+02
-2.5225559337107677e+02 2.6041259337699165e+02
ITEM: ATOMS id type xs ys zs
22 1 0.0951951 0.774986 0.0525398
3 3 0.00620984 0.425548 0.116288
19 3 0.00621031 0.426356 0.11606
23 3 0.184574 0.0132665 0.153357
10 1 0.748112 0.443238 0.372048
27 1 0.329749 0.832874 0.440966
13 1 0.57441 0.848763 0.529563
14 2 0.583627 0.849763 0.529093
17 3 0.567679 0.850036 0.528389
7 1 0.583246 0.850919 0.528617
9 3 0.930626 0.378984 0.532621
28 3 0.930059 0.378553 0.534617
15 1 0.59345 0.849098 0.532909
11 2 0.584226 0.84996 0.533738
31 1 0.566493 0.85024 0.532271
6 3 0.575673 0.851455 0.531908
18 1 0.609622 0.850138 0.530554
4 1 0.591531 0.850962 0.533554
12 3 0.0777172 0.0651284 0.748858
32 1 0.269909 0.184894 0.75868
29 1 0.226763 0.784651 0.769358
2 2 0.630081 0.115911 0.791242
5 2 0.284453 0.0648643 0.816117
26 2 0.293197 0.0664903 0.816927
20 1 0.30132 0.065611 0.820132
16 2 0.654976 0.910221 0.818839
24 1 0.647081 0.694775 0.825962
8 2 0.85147 0.961204 0.87407
21 2 0.838817 0.133203 0.943353
1 1 0.838111 0.134744 0.943032
25 1 0.852227 0.133723 0.946478
30 1 0.0128001 0.725608 0.965132
ITEM: TIMESTEP
105000
ITEM: NUMBER OF ATOMS
32
ITEM: BOX BOUNDS pp pp pp
-4.7000768761957531e+01 5.5157768762157346e+01
-7.7192798532347615e+02 7.8008498532387091e+02
-2.5855129124886793e+02 2.6670829125492116e+02
ITEM: ATOMS id type xs ys zs
22 1 0.329396 0.773264 0.0584752
3 3 0.00619795 0.425566 0.116357
19 3 0.00622289 0.426338 0.115992
23 3 0.184574 0.0132665 0.153357
10 1 0.75312 0.443257 0.372273
27 1 0.329757 0.832874 0.440963
13 1 0.574041 0.848826 0.529766
14 2 0.583766 0.849771 0.52911
17 3 0.567141 0.850053 0.528462
7 1 0.583382 0.850947 0.528945
9 3 0.930635 0.378948 0.532596
28 3 0.93005 0.378589 0.534642
15 1 0.592376 0.849051 0.533676
31 1 0.5681 0.850198 0.532324
11 2 0.58415 0.849971 0.533488
6 3 0.575342 0.851399 0.532026
4 1 0.591622 0.850967 0.533521
18 1 0.610752 0.85007 0.53064
12 3 0.069421 0.0650547 0.74747
32 1 0.268709 0.187415 0.75613
29 1 0.22676 0.784651 0.769359
2 2 0.60314 0.116152 0.79086
5 2 0.285023 0.0648476 0.815969
20 1 0.300802 0.0645993 0.819634
26 2 0.292617 0.0663149 0.817496
16 2 0.654347 0.910219 0.818813
24 1 0.647076 0.694775 0.825962
8 2 0.851468 0.961204 0.874068
21 2 0.838718 0.133196 0.943354
25 1 0.853491 0.133734 0.946532
1 1 0.837605 0.134789 0.942973
30 1 0.012749 0.725608 0.965133
ITEM: TIMESTEP
110000
ITEM: NUMBER OF ATOMS
32
ITEM: BOX BOUNDS pp pp pp
-4.7231917593354297e+01 5.5388917593554112e+01
-8.0161348812008407e+02 8.0977048812048599e+02
-2.6508539559776460e+02 2.7324239560396700e+02
ITEM: ATOMS id type xs ys zs
22 1 0.56288 0.771675 0.064132
3 3 0.00618615 0.425586 0.116421
19 3 0.00623538 0.426318 0.115928
23 3 0.184574 0.0132665 0.153357
10 1 0.758112 0.443275 0.372488
27 1 0.329766 0.832873 0.440961
17 3 0.567181 0.849952 0.528776
7 1 0.581155 0.850948 0.528736
28 3 0.930045 0.378625 0.534654
9 3 0.93064 0.378912 0.532583
13 1 0.577159 0.84885 0.529844
14 2 0.58425 0.849847 0.529101
15 1 0.589938 0.849054 0.533809
11 2 0.58397 0.850002 0.533451
31 1 0.568 0.850212 0.532334
4 1 0.592788 0.850905 0.533085
18 1 0.608447 0.849727 0.530587
6 3 0.575475 0.85129 0.53208
12 3 0.0611501 0.0649867 0.746146
32 1 0.267513 0.18974 0.7537
29 1 0.226757 0.784651 0.769359
2 2 0.576281 0.116374 0.790495
5 2 0.284796 0.064826 0.815696
20 1 0.301051 0.064904 0.819078
26 2 0.292738 0.0660027 0.818182
16 2 0.65372 0.910216 0.818788
24 1 0.647072 0.694774 0.825962
8 2 0.851466 0.961204 0.874065
21 2 0.838776 0.133226 0.943385
25 1 0.854163 0.13368 0.946439
1 1 0.836453 0.134604 0.942818
30 1 0.0126981 0.725608 0.965134
ITEM: TIMESTEP
115000
ITEM: NUMBER OF ATOMS
32
ITEM: BOX BOUNDS pp pp pp
-4.7463066424751062e+01 5.5620066424950878e+01
-8.3280655821169466e+02 8.4096355821210659e+02
-2.7130137261979178e+02 2.7945837262613406e+02
ITEM: ATOMS id type xs ys zs
22 1 0.796113 0.770201 0.0695463
3 3 0.00617442 0.425605 0.116482
19 3 0.0062478 0.426299 0.115867
23 3 0.184574 0.0132665 0.153357
10 1 0.763099 0.443291 0.372694
27 1 0.329774 0.832873 0.440958
9 3 0.930644 0.378879 0.532575
13 1 0.574278 0.848839 0.529808
17 3 0.566693 0.850052 0.528752
14 2 0.583853 0.849781 0.529104
15 1 0.591201 0.849163 0.533229
11 2 0.583873 0.849984 0.53349
31 1 0.567942 0.850247 0.532371
18 1 0.610035 0.850109 0.530726
7 1 0.584209 0.850827 0.528862
4 1 0.592851 0.850875 0.533274
6 3 0.576356 0.851321 0.532012
28 3 0.930041 0.378658 0.534663
12 3 0.0528882 0.0649236 0.74488
32 1 0.266318 0.191898 0.751374
29 1 0.226754 0.784651 0.769359
2 2 0.549452 0.11658 0.790147
5 2 0.285507 0.0648624 0.815743
20 1 0.299803 0.0645844 0.818115
26 2 0.292108 0.0657329 0.818584
16 2 0.653094 0.910214 0.818765
24 1 0.647067 0.694774 0.825962
8 2 0.851464 0.961204 0.874063
21 2 0.838809 0.133226 0.943413
1 1 0.836989 0.134552 0.942989
25 1 0.853345 0.133735 0.946049
30 1 0.0126472 0.725608 0.965136
ITEM: TIMESTEP
120000
ITEM: NUMBER OF ATOMS
32
ITEM: BOX BOUNDS pp pp pp
-4.7694215256147828e+01 5.5851215256347643e+01
-8.6378730033336990e+02 8.7194430033378831e+02
-2.7750735149889204e+02 2.8566435150536950e+02
ITEM: ATOMS id type xs ys zs
22 1 0.0292509 0.768826 0.0747368
3 3 0.00616271 0.425624 0.11654
19 3 0.00626019 0.42628 0.115809
23 3 0.184574 0.0132665 0.153357
10 1 0.768084 0.443307 0.372892
27 1 0.329782 0.832873 0.440956
9 3 0.930646 0.378847 0.532573
13 1 0.573652 0.848876 0.529709
14 2 0.583862 0.849781 0.529163
17 3 0.56701 0.850083 0.52888
15 1 0.591346 0.849167 0.533013
18 1 0.610345 0.850074 0.530558
7 1 0.585102 0.850724 0.528953
31 1 0.567787 0.850241 0.532345
6 3 0.576296 0.851251 0.532009
28 3 0.930039 0.37869 0.534665
11 2 0.5838 0.850014 0.533434
4 1 0.592222 0.850833 0.533387
12 3 0.0446296 0.0648647 0.743666
32 1 0.265124 0.193911 0.749144
29 1 0.226751 0.784651 0.769359
2 2 0.522633 0.116772 0.789812
5 2 0.285486 0.064879 0.815695
20 1 0.301384 0.0645048 0.81771
26 2 0.291854 0.0654707 0.818997