LAMMPS (30 Jul 2021)
OMP_NUM_THREADS environment is not set. Defaulting to 1 thread. (src/comm.cpp:98)
  using 1 OpenMP thread(s) per MPI task
#uniaxial tensile test of graphene

##---------------INITIALIZATION-------------------------------

units          metal
dimension 	    3
boundary       p p f
atom_style 	atomic
newton 		on


##---------------ATOM DEFINITION------------------------------

read_data 	grap.data.txt
Reading data file ...
  orthogonal box = (-0.69800000 -0.60448600 -10.000000) to (49.558000 50.172316 10.000000)
  1 by 1 by 1 MPI processor grid
  reading atoms ...
  1008 atoms
  read_data CPU = 0.000 seconds


##---------------FORCE FIELDS---------------------------------

pair_style 	airebo 3.0
pair_coeff     * * CH.airebo C
Reading airebo potential file CH.airebo with DATE: 2011-10-25


##---------------SETTINGS-------------------------------------

timestep 	0.0005
variable   ts equal 0.0005


##---------------COMPUTES-------------------------------------

compute 	1 all stress/atom NULL
compute    2 all reduce sum c_1[1] c_1[2]


variable   Lx equal lx
variable   Ly equal ly
variable   Lz equal lz
variable   Vol equal vol
variable   thickn equal 3.4
fix		1 all npt temp 300 300 0.05 x 0 0 0.5 y 0 0 0.5
thermo 	2000
##---------------RELAXATION--------------------------------------

run            50000
Neighbor list info ...
  update every 1 steps, delay 10 steps, check yes
  max neighbors/atom: 2000, page size: 100000
  master list distance cutoff = 12.2
  ghost atom cutoff = 12.2
  binsize = 6.1, bins = 9 9 4
  1 neighbor lists, perpetual/occasional/extra = 1 0 0
  (1) pair airebo, perpetual
      attributes: full, newton on, ghost
      pair build: full/bin/ghost
      stencil: full/ghost/bin/3d
      bin: standard
Per MPI rank memory allocation (min/avg/max) = 4.680 | 4.680 | 4.680 Mbytes
Step Temp E_pair E_mol TotEng Press Volume 
       0            0   -7483.3478            0   -7483.3478    557.19809    51036.779 
    2000    306.10902   -7447.0882            0   -7407.2435   -1207.6166    51118.834 
    4000    301.80768   -7447.3125            0   -7408.0277   -114.78636    51100.132 
    6000    300.11071   -7450.4457            0   -7411.3818    988.09009    51059.964 
    8000    294.42849   -7449.7583            0    -7411.434   -566.88547     51184.54 
   10000    299.05244   -7447.6308            0   -7408.7046    83.310682     51157.17 
   12000    297.84364   -7446.6756            0   -7407.9068    336.82636    51139.163 
   14000    308.72788   -7446.3869            0   -7406.2013   -66.025439    51172.085 
   16000    299.49314   -7447.0233            0   -7408.0398   -561.87005     51210.26 
   18000    281.73117    -7449.967            0   -7413.2955    664.45745    51127.942 
   20000    284.31197   -7449.9587            0   -7412.9513    34.345555    51166.676 
   22000    295.93791   -7448.9516            0   -7410.4308    772.60751    51117.843 
   24000    294.11807   -7448.9604            0   -7410.6765   -266.10249    51187.854 
   26000    295.39523   -7447.1026            0   -7408.6525   -1092.8238    51258.209 
   28000    309.63213   -7449.1353            0   -7408.8321    815.00116    51126.062 
   30000    296.21556   -7448.1324            0   -7409.5755   -201.42442    51186.758 
   32000    306.10682   -7447.4458            0   -7407.6014   -791.67814     51226.74 
   34000    294.90571   -7448.6386            0   -7410.2522    438.53312    51134.161 
   36000    307.33114   -7448.6236            0   -7408.6199    717.42716    51122.235 
   38000    302.01207   -7449.0699            0   -7409.7585   -340.39449    51196.764 
   40000    288.40724    -7449.504            0   -7411.9634    272.33991    51155.284 
   42000    300.75913   -7448.7373            0    -7409.589    1440.2215    51069.598 
   44000    306.73466   -7447.9988            0   -7408.0727   -974.66781    51244.585 
   46000     292.6076   -7448.4778            0   -7410.3905   -281.52442    51181.942 
   48000    303.99622   -7448.9678            0   -7409.3981    1363.0462    51071.574 
   50000    311.59912   -7447.5819            0   -7407.0226    307.55782    51138.709 
Loop time of 680.369 on 1 procs for 50000 steps with 1008 atoms

Performance: 3.175 ns/day, 7.560 hours/ns, 73.489 timesteps/s
69.1% CPU use with 1 MPI tasks x 1 OpenMP threads

MPI task timing breakdown:
Section |  min time  |  avg time  |  max time  |%varavg| %total
---------------------------------------------------------------
Pair    | 467.29     | 467.29     | 467.29     |   0.0 | 68.68
Neigh   | 0          | 0          | 0          |   0.0 |  0.00
Comm    | 0.29989    | 0.29989    | 0.29989    |   0.0 |  0.04
Output  | 208.05     | 208.05     | 208.05     |   0.0 | 30.58
Modify  | 4.3711     | 4.3711     | 4.3711     |   0.0 |  0.64
Other   |            | 0.3617     |            |       |  0.05

Nlocal:        1008.00 ave        1008 max        1008 min
Histogram: 1 0 0 0 0 0 0 0 0 0
Nghost:        1224.00 ave        1224 max        1224 min
Histogram: 1 0 0 0 0 0 0 0 0 0
Neighs:         0.00000 ave           0 max           0 min
Histogram: 1 0 0 0 0 0 0 0 0 0
FullNghs:      187488.0 ave      187488 max      187488 min
Histogram: 1 0 0 0 0 0 0 0 0 0

Total # of neighbors = 187488
Ave neighs/atom = 186.00000
Neighbor list builds = 0
Dangerous builds = 0


##---------------DEFORMATION--------------------------------------
unfix              1
reset_timestep     0
fix		1 all npt temp 300 300 0.05 x 0 0 0.5
fix        2 all ave/time 1 100 100 c_2[1] c_2[2]
fix        3 all ave/time 1 100 100 v_Lx v_Ly v_Lz v_Vol
variable   srate equal 1.0e9
variable   srate1 equal "v_srate / 1.0e12"
fix		4 all deform 1 y erate ${srate1} units box remap x
fix		4 all deform 1 y erate 0.001 units box remap x
run            100
Per MPI rank memory allocation (min/avg/max) = 4.680 | 4.680 | 4.680 Mbytes
Step Temp E_pair E_mol TotEng Press Volume 
       0    311.59912   -7447.5819            0   -7407.0226    307.55782    51138.709 
     100    308.06698   -7448.4447            0   -7408.3451    58.531941    51157.159 
Loop time of 1.17181 on 1 procs for 100 steps with 1008 atoms

Performance: 3.687 ns/day, 6.510 hours/ns, 85.338 timesteps/s
100.0% CPU use with 1 MPI tasks x 1 OpenMP threads

MPI task timing breakdown:
Section |  min time  |  avg time  |  max time  |%varavg| %total
---------------------------------------------------------------
Pair    | 1.1718     | 1.1718     | 1.1718     |   0.0 |100.00
Neigh   | 0          | 0          | 0          |   0.0 |  0.00
Comm    | 0          | 0          | 0          |   0.0 |  0.00
Output  | 0          | 0          | 0          |   0.0 |  0.00
Modify  | 0          | 0          | 0          |   0.0 |  0.00
Other   |            | 0          |            |       |  0.00

Nlocal:        1008.00 ave        1008 max        1008 min
Histogram: 1 0 0 0 0 0 0 0 0 0
Nghost:        1224.00 ave        1224 max        1224 min
Histogram: 1 0 0 0 0 0 0 0 0 0
Neighs:         0.00000 ave           0 max           0 min
Histogram: 1 0 0 0 0 0 0 0 0 0
FullNghs:      185406.0 ave      185406 max      185406 min
Histogram: 1 0 0 0 0 0 0 0 0 0

Total # of neighbors = 185406
Ave neighs/atom = 183.93452
Neighbor list builds = 0
Dangerous builds = 0
##---------------THERMO-OUTPUTS--------------------------------------
variable   CorVol equal f_3[4]*v_thickn/(f_3[3])
variable   ConvoFac equal 1/1.0e4
variable   sigmaxx equal f_2[1]*v_ConvoFac/v_CorVol
variable   sigmayy equal f_2[2]*v_ConvoFac/v_CorVol
variable   StrainPerTs equal v_srate1*v_ts
variable   strain equal v_StrainPerTs*step
thermo 	100
thermo_style custom step temp v_strain v_sigmaxx v_sigmayy pe ke lx ly vol


##---------------DEFORMATION--------------------------------------
dump           1 all atom 5000 tensile_test.lammpstrj
run            500000
Per MPI rank memory allocation (min/avg/max) = 5.430 | 5.430 | 5.430 Mbytes
Step Temp v_strain v_sigmaxx v_sigmayy PotEng KinEng Lx Ly Volume 
     100    308.06698        5e-05   0.10845506  -0.11848534   -7448.4446    40.099528    50.317881    50.833977    51157.159 
     200    303.21147       0.0001 -0.082444777 -0.053210468   -7449.6986     39.46751    50.334279    50.836518     51176.39 
     300    295.21873      0.00015  -0.11781798   0.10276784   -7448.6755    38.427136    50.313375     50.83906    51157.694 
     400    303.83208       0.0002  0.087576302  0.084197335   -7448.9481    39.548292    50.295748    50.841602    51142.328 
     500    301.59014      0.00025   0.15166776   0.17169141   -7447.6866     39.25647    50.314467    50.844143     51163.92 
     600    306.75281       0.0003  -0.16459861   0.15767882   -7447.7806    39.928469    50.344782    50.846685    51197.306 
     700    307.71318      0.00035  -0.10294578    0.1456196    -7447.822    40.053476    50.311988    50.849227    51166.514 
     800    295.92794       0.0004   0.13854746   0.27471437   -7447.6421     38.51945    50.287812    50.851768    51144.484 
     900    291.37849      0.00045   0.16101459    0.3294186   -7448.6041    37.927271    50.310727     50.85431    51170.346 
    1000    301.99591       0.0005   -0.1583187   0.35994699     -7450.12    39.309287    50.347082    50.856852    51209.882 
    1100    290.35587      0.00055  -0.16648855   0.39454489   -7446.4393    37.794162     50.31155    50.859394    51176.299 
    1200    309.46601       0.0006   0.20012758   0.34217466   -7447.7083    40.281633    50.283335    50.861935    51150.155 
    1300    301.18505      0.00065  0.072382859   0.57520995   -7447.3704    39.203742    50.315789    50.864477    51185.726 
    1400    303.45214       0.0007  -0.15584897   0.52647049   -7449.0234    39.498837    50.325233    50.867019    51197.892 
    1500    290.18781      0.00075 -0.0051245076   0.50824104   -7447.8524    37.772287    50.300124     50.86956    51174.904 
    1600    300.77804       0.0008   0.10846893   0.63826168   -7448.6162    39.150763    50.303907    50.872102     51181.31 
    1700     305.6812      0.00085 -0.016217614   0.65066281   -7446.0604    39.788984    50.329214    50.874644    51209.617 
    1800    314.79212       0.0009  -0.16178758   0.65786959   -7447.5117    40.974906     50.32374    50.877185    51206.605 
    1900    311.27647      0.00095  0.030505049   0.75745628   -7449.1854    40.517291    50.273265    50.879727      51157.8 
    2000    291.97667        0.001   0.29096396   0.91261112   -7447.7369    38.005133    50.282458    50.882269    51169.711 
    2100    301.19054      0.00105  -0.12182284   0.85893145    -7449.104    39.204456    50.364516    50.884811    51255.778 
    2200    296.51742       0.0011  -0.38269447   0.82392031   -7447.7297     38.59618    50.325304    50.887352    51218.429 
    2300    316.09111      0.00115   0.23657168   0.89619338    -7447.541    41.143989    50.238704    50.889894    51132.847 
    2400     321.8144       0.0012   0.39308055    1.0947904   -7448.6072     41.88896    50.295272    50.892436    51192.978 
    2500    294.76002      0.00125  -0.27987725    1.0451865   -7446.9613    38.367428    50.372017    50.894977    51273.654 
    2600    298.20531       0.0013  -0.36402416   0.95993894   -7448.1459    38.815883    50.313044    50.897519    51216.182 
    2700    299.76741      0.00135   0.36601409    1.1982851   -7448.4038    39.019215    50.230553    50.900061    51134.764 
    2800    287.48781       0.0014   0.24424934    1.3360906   -7446.5316    37.420841    50.318992    50.902602    51227.353 
    2900    303.09211      0.00145   -0.4514566    1.1655285   -7446.9704    39.451974    50.365853    50.905144     51277.62 
    3000    314.24034       0.0015   -0.1099017    1.2165286   -7447.2481    40.903083    50.268747    50.907686    51181.311 
    3100    314.17651      0.00155   0.37285129    1.4581456   -7448.6599    40.894775    50.238012    50.910228    51152.572 
    3200    297.17185       0.0016   0.14030141    1.5086931   -7448.6573    38.681364    50.321521    50.912769     51240.16 
    3300    284.87481      0.00165  -0.35686337     1.420848   -7447.0333     37.08072      50.3584    50.915311    51280.272 
    3400    302.63498       0.0017  -0.10726463    1.4540489   -7448.2063    39.392471    50.260041    50.917853    51182.668 
    3500    313.32756      0.00175   0.35607251    1.7096628   -7448.2626    40.784272    50.260573    50.920394    51185.764 
    3600    301.59115       0.0018 -0.020910654    1.5908013   -7446.7396    39.256602     50.33107    50.922936    51260.118 
    3700    299.80654      0.00185  -0.22440767     1.585893   -7448.9585    39.024309    50.313121    50.925478    51244.394 
    3800    288.50013       0.0019  0.040657419    1.7249518   -7448.4061    37.552609     50.27827    50.928019    51211.454 
    3900     301.6214      0.00195   0.12372171    1.8348441   -7449.3248    39.260539    50.276153    50.930561    51211.853 
    4000    294.95944        0.002 -0.0035546985    1.8490192    -7446.341    38.393385    50.312021    50.933103    51250.947 
    4100    307.96865      0.00205 -0.078137892    1.8159272   -7447.6882    40.086728    50.304898    50.935645    51246.248 
    4200    304.77181       0.0021 -0.0081683382    1.9519829    -7447.946    39.670613    50.276111    50.938186    51219.479 
    4300    298.60868      0.00215   0.09834937    1.9555152   -7447.8772    38.868388    50.286695    50.940728    51232.817 
    4400    295.37532       0.0022 -0.0034755601    1.9190421   -7447.7836    38.447519    50.316677     50.94327    51265.921 
    4500    297.87685      0.00225  -0.12486632    2.0186463    -7447.936     38.77313    50.295293    50.945811     51246.69 
    4600    304.39182       0.0023  0.045891185    2.1576403    -7448.317    39.621151    50.276917    50.948353    51230.523 
    4700    297.67107      0.00235   0.11744205    2.1735464   -7447.3323    38.746344    50.280168    50.950895     51236.39 
    4800    298.82301       0.0024 -0.082376027    2.1795231   -7447.5208    38.896287    50.317045    50.953436    51276.527 
    4900    297.06801      0.00245  -0.12963197    2.1777169   -7447.8388    38.667847    50.288198    50.955978    51249.686 
    5000    296.52091       0.0025   0.17490836    2.3235206    -7448.436    38.596634    50.250989     50.95852     51214.32 
    5100    296.41689      0.00255   0.10854629    2.3727897   -7448.3222    38.583094    50.307868    50.961062    51274.847 
    5200    298.14333       0.0026  -0.24709459    2.2257493   -7447.1223    38.807817    50.317557    50.963603     51287.28 
    5300    309.01703      0.00265 -0.054180551    2.4063958   -7446.7638    40.223192    50.251918    50.966145    51222.931 
    5400    318.76042       0.0027    0.2856272    2.5377708   -7448.3022     41.49144    50.260749    50.968687    51234.487 
    5500     296.3002      0.00275  0.019147354    2.4020607   -7448.3024    38.567906    50.320074    50.971228     51297.52 
    5600    294.83093       0.0028  -0.31191875    2.5029728    -7448.204    38.376658    50.323975     50.97377    51304.054 
    5700    301.09384      0.00285 -0.017594579    2.5791975   -7448.1056     39.19187    50.253803    50.976312    51235.071 
    5800    309.65934       0.0029   0.35578951    2.6986378   -7448.0322    40.306797    50.255344    50.978853    51239.197 
    5900    307.40221      0.00295 -0.049281126    2.6775508   -7446.9183    40.012998    50.326387    50.981395    51314.188 
    6000    300.79244        0.003  -0.34221684     2.660576   -7446.9754    39.152638     50.31606    50.983937    51306.216 
    6100    291.61669      0.00305  0.098631957    2.8306069   -7448.0447    37.958276    50.226596    50.986479    51217.545 
    6200    297.18333       0.0031   0.36856839    2.9368448   -7449.1242    38.682859    50.267074     50.98902    51261.377 
    6300    300.91421      0.00315   -0.1687322    2.8278878   -7448.2311    39.168488     50.35029    50.991562    51348.798 
    6400    301.99558       0.0032  -0.40657045    2.7998555   -7446.3712    39.309245    50.294975    50.994104    51294.943 
    6500    294.75225      0.00325   0.27031969    3.0602948   -7445.2758    38.366417    50.207404    50.996645    51208.184 
    6600    302.86264       0.0033   0.41862768    3.0682734   -7447.3194    39.422105    50.288364    50.999187    51293.314 
    6700    298.91849      0.00335  -0.48041084    2.9927123   -7447.6542    38.908715    50.367872    51.001729    51376.971 
    6800     297.1073       0.0034  -0.28221291    2.9982545   -7448.1113    38.672961    50.251363     51.00427    51260.682 
    6900    295.41173      0.00345   0.55897266    3.2710417   -7448.7815    38.452258    50.190502    51.006812    51201.151 
    7000    289.45389       0.0035   0.20703081    3.2787644   -7448.9692    37.676756    50.328761    51.009354    51344.752 
    7100    290.46656      0.00355  -0.69382026    3.0784456   -7447.6445     37.80857    50.367869    51.011896    51387.209 
    7200    298.77525       0.0036  -0.04635635     3.233922   -7446.7159    38.890071    50.195607    51.014437    51214.013 
    7300    304.70954      0.00365   0.71014635    3.5753805   -7447.0625    39.662506    50.211304    51.016979    51232.581 
    7400    298.49785       0.0037 -0.078798249    3.2880975   -7447.2086    38.853962    50.355717    51.019521    51382.491 
    7500    289.30377      0.00375  -0.57899267    3.2910091   -7448.3307    37.657215    50.315457    51.022062    51343.968 
    7600    290.39998       0.0038   0.15106898    3.5803315   -7448.7205    37.799903    50.199919    51.024604    51228.619 
    7700    290.34093      0.00385   0.45751581    3.5820322   -7447.9014    37.792217    50.258232    51.027146    51290.682 
    7800    295.77664       0.0039  -0.29591966    3.5313812   -7447.4946    38.499757    50.342185    51.029687     51378.92 
    7900    304.13786      0.00395  -0.30672995    3.6239326   -7447.5462    39.588094    50.251821    51.032229    51289.249 
    8000    305.09186        0.004   0.42023971    3.7323296   -7447.0199    39.712271    50.220866    51.034771    51260.207 
    8100    305.48857      0.00405   0.12470981    3.6946555   -7448.1574    39.763909    50.301411    51.037313    51344.977 
    8200    291.92811       0.0041  -0.40759782    3.7432823    -7448.617    37.998813      50.3039    51.039854    51350.074 
    8300    294.94973      0.00415  0.013801525    3.8323838   -7448.7983    38.392121    50.229285    51.042396    51276.461 
    8400    310.52163       0.0042   0.32321204    3.9105773   -7448.8287    40.419038    50.244988    51.044938    51295.046 
    8500    307.60422      0.00425  -0.09943374    3.9515287   -7447.4215    40.039293    50.304364    51.047479     51358.22 
    8600     300.1564       0.0043  -0.25594863    3.9484804   -7446.8891    39.069847    50.282166    51.050021    51338.112 
    8700    306.24398      0.00435   0.13390936    3.9993638   -7448.3047    39.862237    50.234121    51.052563    51291.612 
    8800    297.97633       0.0044   0.22692513    4.0874177   -7448.3022    38.786079    50.247405    51.055104     51307.73 
    8900    280.45054      0.00445  -0.12428625    4.1550408   -7447.6055    36.504835     50.29589    51.057646    51359.795 
    9000    278.23302       0.0045  -0.16333824    4.1597974   -7448.3932    36.216192     50.27793    51.060188    51344.011 
    9100    292.03815      0.00455    0.1214615     4.299983    -7448.006    38.013136      50.2371    51.062729    51304.869 
    9200    305.99269       0.0046    0.1221052    4.3486425   -7448.1246    39.829528    50.259503    51.065271    51330.303 
    9300    297.35332      0.00465   -0.1367205    4.3179553   -7446.5267    38.704985    50.292225    51.067813    51366.278 
    9400    301.61606       0.0047  -0.10911413    4.3026298   -7446.9371    39.259844     50.26203    51.070355    51337.994 
    9500    296.74999      0.00475   0.14448617    4.5241578    -7447.525    38.626452    50.237455    51.072896    51315.446 
    9600    291.72909       0.0048  0.049680871     4.572202   -7448.6085    37.972907    50.259403    51.075438     51340.42 
    9700    297.27076      0.00485 -0.040015627    4.4633849   -7448.7368    38.694239    50.279595     51.07798    51363.602 
    9800    293.03108       0.0049 -0.095694121    4.5908395   -7445.7542    38.142381    50.263137    51.080521    51349.345 
    9900    299.99711      0.00495  0.098560985    4.7005649   -7446.3187    39.049114    50.239266    51.083063    51327.512 
   10000    307.58797        0.005  0.090838972    4.6485662   -7448.0186    40.037177    50.275878    51.085605    51367.473 
   10100    303.46117      0.00505  -0.22715868    4.6751673   -7448.6055    39.500013    50.291679    51.088146    51386.173 
   10200    283.85355       0.0051 -0.062299507    4.7877397   -7447.2524    36.947788    50.232196    51.090688    51327.949 
   10300    294.18955      0.00515   0.28397406    4.9141109   -7449.4691    38.293173    50.222675     51.09323    51320.773 
   10400    297.32097       0.0052  0.060475389    4.8566372   -7448.4623    38.700774    50.279644    51.095772    51381.544 
   10500    302.74581      0.00525  -0.26925853     4.827846   -7447.0619    39.406899    50.296521    51.098313    51401.348 
   10600    299.41281       0.0053 0.0047698461    4.9653456    -7446.171    38.973058     50.22659    51.100855    51332.434 
   10700    299.68081      0.00535   0.20838716    4.9820035   -7446.8151    39.007943    50.249238    51.103397    51358.135 
   10800    291.35791       0.0054  -0.10268331    4.9567072   -7447.8328    37.924592    50.287292    51.105938    51399.585 
   10900     282.7973      0.00545   -0.1333008    5.0824435   -7447.4675    36.810301    50.255729     51.10848    51369.878 
   11000    288.49095       0.0055   0.16166276    5.1889698   -7446.3726    37.551415    50.225096    51.111022     51341.12 
   11100    310.68881      0.00555  0.098799084    5.2262476   -7446.8961    40.440798     50.26473    51.113563     51384.19 
   11200    310.56511       0.0056  -0.20926221    5.1519873   -7447.5927    40.424697    50.282584    51.116105    51404.997 
   11300    294.90107      0.00565  -0.07421956    5.3215519   -7447.1695    38.385788    50.231257    51.118647    51355.078 
   11400    300.79147       0.0057   0.26851022    5.3638861   -7448.8524    39.152511    50.221377    51.121189     51347.53 
   11500    305.59139      0.00575 -0.033031095     5.449216   -7448.5959    39.777292    50.272389     51.12373    51402.241 
   11600     298.6313       0.0058  -0.19549099    5.4636984   -7445.1806    38.871333    50.265183    51.126272    51397.428 
   11700    308.03341      0.00585  0.064947932    5.4308034   -7446.2948    40.095159    50.226316    51.128814    51360.239 
   11800     298.4616       0.0059   0.18297911    5.5620592   -7446.1473    38.849244    50.243827    51.131355    51380.699 
   11900     295.1722      0.00595  -0.18387438    5.5508265   -7446.5924     38.42108    50.286549    51.133897    51426.945 
   12000    303.47692        0.006  -0.16094599    5.5929469   -7448.0201    39.502063    50.222477    51.136439    51363.972 
   12100    294.15324      0.00605   0.38510937    5.7505011   -7446.7964    38.288447    50.205815     51.13898    51349.483 
   12200    302.00763       0.0061  0.019747529    5.6868068    -7445.784    39.310813    50.295229    51.141522    51443.491 
   12300    306.44351      0.00615  -0.44035826    5.6645801   -7445.0002    39.888209     50.28776    51.144064    51438.408 
   12400    308.06913       0.0062   0.10549531    5.7875891   -7446.8316    40.099808    50.193183    51.146606    51344.218 
   12500    303.22667      0.00625   0.38772113      5.95073   -7447.9069     39.46949    50.223727    51.149147    51378.016 
   12600    294.25873       0.0063  -0.23931654    5.8247002   -7446.8853    38.302178    50.310128    51.151689     51468.96 
   12700    303.54061      0.00635  -0.30095338    5.7823485   -7447.5549    39.510354    50.239138    51.154231     51398.89 
   12800    306.25398       0.0064   0.37981455    6.0776305   -7445.8903    39.863539    50.174426    51.156772    51335.233 
   12900    311.92514      0.00645   0.16624587    6.0430976   -7445.1142    40.601725    50.282259    51.159314    51448.118 
   13000    296.19164       0.0065  -0.43358481    5.9967433   -7444.6935    38.553774    50.296522    51.161856    51465.268 
   13100    291.03539      0.00655 -0.00088550545    6.0250497   -7445.4137    37.882612     50.19904    51.164397    51368.072 
   13200     297.7465       0.0066   0.34883549    6.2925055   -7446.7806    38.756163    50.204463    51.166939    51376.174 
   13300    296.40447      0.00665 -0.016015196    6.1531282   -7446.7947    38.581477    50.284016    51.169481     51460.14 
   13400    289.16334       0.0067  -0.33704311    6.1877665   -7445.4107    37.638936    50.269867    51.172023    51448.215 
   13500    317.17377      0.00675   0.08371244    6.3487991   -7447.6275    41.284913    50.191324    51.174564    51370.383 
   13600    314.26028       0.0068   0.33890962     6.337922    -7446.378    40.905678    50.233716    51.177106    51416.324 
   13700    300.53545      0.00685  -0.19990338    6.3450321   -7445.9533    39.119187     50.29325    51.179648    51479.817 
   13800    285.41261       0.0069  -0.26312398    6.4060006   -7446.2093    37.150722    50.229012    51.182189    51416.617 
   13900    301.90225      0.00695   0.28403252    6.5425569   -7448.0564    39.297097    50.192922    51.184731    51382.224 
   14000     297.1061        0.007   0.13186766    6.5533179   -7446.3337    38.672805    50.249567    51.187273    51442.766 
   14100    292.50075      0.00705  -0.27601426    6.5040376   -7444.1424     38.07335    50.277529    51.189814    51473.947 
   14200    317.02944       0.0071 -0.082365108    6.6058726   -7446.1472    41.266126    50.221521    51.192356     51419.16 
   14300    310.32576      0.00715   0.27196389    6.6303526   -7445.5985    40.393543    50.201449    51.194898    51401.161 
   14400    297.58874       0.0072  0.048990036    6.7791382   -7446.3632    38.735629    50.258875     51.19744    51462.514 
   14500    286.85305      0.00725   -0.2397774    6.6839434   -7446.3054    37.338218    50.264534    51.199981    51470.864 
   14600    291.34679       0.0073 -0.0096727237    6.7847537   -7446.7418    37.923145    50.215964    51.202523    51423.681 
   14700    312.21475      0.00735   0.17534406    6.9210877   -7447.5521    40.639422    50.221663    51.205065     51432.07 
   14800    304.90165       0.0074 -0.044788456     6.974542   -7445.1666    39.687513    50.258373    51.207606     51472.22 
   14900    303.49649      0.00745  -0.11907478    6.8575087   -7445.5859     39.50461    50.250074    51.210148    51466.275 
   15000    307.28552       0.0075  0.085748027     6.995674   -7447.0226     39.99781    50.211787     51.21269    51429.614 
   15100    306.88738      0.00755   0.10541601    7.0948696   -7447.4446    39.945985    50.235899    51.215231    51456.864 
   15200     300.8163       0.0076  -0.13662281    7.0408441   -7446.8891    39.155744    50.258246    51.217773    51482.309 
   15300     291.5108      0.00765 -0.049978488    7.1358717   -7445.5902    37.944493    50.220944    51.220315    51446.651 
   15400    307.13889       0.0077  0.081712552    7.2522141   -7446.8598    39.978724    50.219357    51.222857    51447.578 
   15500    304.10083      0.00775  0.078585346    7.2321366   -7445.7111    39.583274    50.225199    51.225398    51456.116 
   15600    304.97453       0.0078  0.018133249    7.2975289   -7446.0345    39.696999    50.247621     51.22794    51481.642 
   15700    294.98104      0.00785  -0.19467169    7.3067476    -7446.557    38.396196    50.244699    51.230482    51481.203 
   15800    294.42488       0.0079  0.033504591    7.3909096   -7447.4743    38.323804    50.198591    51.233023    51436.512 
   15900    296.39141      0.00795   0.26157278    7.4723912   -7446.9015    38.579778    50.209389    51.235565    51450.128 
   16000    304.34379        0.008  -0.11534988    7.5061149   -7445.0775    39.614899    50.276993    51.238107    51521.958 
   16100    311.30312      0.00805  -0.34037648     7.433207   -7446.0076     40.52076    50.236399    51.240648    51482.913 
   16200    306.09499       0.0081   0.26052054     7.663535   -7446.5429    39.842845    50.151435     51.24319     51398.39 
   16300    295.74118      0.00815   0.30987755    7.7612204   -7446.5683    38.495141     50.23163    51.245732    51483.133 
   16400    289.67158       0.0082   -0.3854136    7.6479259   -7446.1537    37.705091    50.291096    51.248274    51546.637 
   16500    287.44704      0.00825  -0.18583853    7.6991515   -7444.0876    37.415534     50.19324    51.250815     51448.89 
   16600    316.35101       0.0083   0.43334343    7.8243631    -7445.648    41.177819    50.164486    51.253357    51421.966 
   16700    307.06743      0.00835  0.083740293    7.8428569   -7445.4924    39.969421    50.282056    51.255899     51545.04 
   16800    304.43323       0.0084  -0.54331914    7.7522751   -7446.8875    39.626541    50.253829     51.25844    51518.657 
   16900    299.87007      0.00845   0.17393537    7.9724927    -7446.717    39.032577    50.136032    51.260982    51400.445 
   17000    294.02864       0.0085   0.51330353    8.0140486   -7445.8654    38.272229    50.209624    51.263524    51478.445 
   17100    306.08257      0.00855  -0.41095868    7.8961595   -7445.6402    39.841227    50.315683    51.266065    51589.742 
   17200    311.95235       0.0086  -0.35222694    7.9651521   -7444.2763    40.605268     50.19579    51.268607    51469.365 
   17300    307.94392      0.00865   0.54089766    8.1802382   -7444.9172    40.083509    50.142414    51.271149    51417.184 
   17400    300.41953       0.0087   0.15136214    8.1331422   -7445.6453    39.104098    50.274774     51.27369    51555.464 
   17500    298.95346      0.00875  -0.62301066    8.0502012   -7445.9778    38.913267    50.283771    51.276232    51567.246 
   17600    306.97954       0.0088  0.097757485    8.2328784   -7447.3374    39.957981    50.139803    51.278774    51422.152 
   17700    295.03178      0.00885   0.55477202    8.4315396   -7445.6213    38.402801    50.187382    51.281316    51473.499 
   17800    294.20379       0.0089  -0.24647527    8.1956782   -7444.0087    38.295026    50.296805    51.283857    51588.284 
   17900    307.14453      0.00895  -0.42613189    8.2589825   -7444.5838    39.979458    50.229304    51.286399    51521.603 
   18000    314.11992        0.009     0.314408    8.4882876    -7446.543    40.887408    50.149837    51.288941     51442.64 
   18100    298.27848      0.00905   0.28208923    8.4435907   -7446.7727    38.825408    50.218132    51.291482    51515.249 
   18200    288.79074       0.0091   -0.3078519    8.4766919    -7445.665    37.590437    50.262542    51.294024    51563.361 
   18300    295.54116      0.00915  -0.17429233    8.4422281   -7445.4333    38.469105      50.1992    51.296566    51500.932 
   18400    310.25785       0.0092   0.30262174    8.6431956    -7446.306    40.384702    50.168927    51.299107    51472.423 
   18500    309.30482      0.00925   0.10038482    8.6222835   -7445.7745    40.260651    50.240086    51.301649    51547.985 
   18600    303.02723       0.0093  -0.34727219    8.6037623    -7445.486    39.443529     50.24727    51.304191    51557.911 
   18700    302.01053      0.00935  0.064385274    8.6785653   -7446.8884    39.311191    50.169028    51.306733    51480.179 
   18800    291.70776       0.0094   0.28421337    8.8179924   -7446.2857    37.970131    50.191369    51.309274    51505.655 
   18900    297.09921      0.00945  -0.16838618     8.735916   -7446.0676    38.671909     50.25414    51.311816    51572.624 
   19000    304.51257       0.0095  -0.21753046    8.8192889   -7444.8605    39.636868    50.200816    51.314358    51520.452 
   19100    314.69082      0.00955   0.27490547    8.9083732   -7445.9404    40.961721    50.169834    51.316899    51491.207 
   19200     312.6475       0.0096  0.064386899    8.9527792   -7446.5986    40.695751    50.226593    51.319441    51552.013 
   19300     296.1157      0.00965  -0.20210687    8.8909431   -7445.2123     38.54389    50.223805    51.321983    51551.705 
   19400    301.92548       0.0097  0.023209163    9.0232329   -7445.9451     39.30012    50.183853    51.324524    51513.248 
   19500    303.35655      0.00975   0.18218498     9.089213   -7446.0577    39.486396    50.209005    51.327066    51541.618 
   19600     308.0033       0.0098  -0.15557648    9.1147804   -7446.5618    40.091239    50.231971    51.329608    51567.747 
   19700    308.19813      0.00985 -0.097619091    9.0938651   -7445.3986    40.116599    50.202496     51.33215     51540.04 
   19800    306.70016       0.0099   0.16781064    9.1659066   -7444.1057    39.921616    50.184082    51.334691    51523.687 
   19900    298.98144      0.00995   0.01747039    9.2120355   -7444.2975    38.916909    50.220466    51.337233    51563.596 
   20000    295.16454         0.01  -0.16724494    9.2477655   -7445.7326    38.420082    50.210606    51.339775    51556.024 
   20100    292.29981      0.01005  0.089422294    9.2827123   -7445.6049    38.047194    50.183208    51.342316    51530.443 
   20200    300.94995       0.0101  0.079032558     9.380648   -7445.9262    39.173141    50.206199    51.344858    51556.603 
   20300    312.84806      0.01015  -0.10089665    9.3913647   -7446.1229    40.721857    50.214881      51.3474    51568.071 
   20400    317.86842       0.0102 -0.047607277    9.3894806   -7443.5748    41.375332    50.197561    51.349941    51552.836 
   20500    314.93915      0.01025   0.12435124    9.5109061   -7443.0417    40.994043    50.183491    51.352483    51540.938 
   20600    309.19238       0.0103  0.036447556    9.6024366   -7444.2638    40.246015    50.202769    51.355025    51563.289 
   20700    297.57177      0.01035 -0.084385414    9.5436058   -7444.5909    38.733419    50.211425    51.357567    51574.732 
   20800    296.83317       0.0104 -0.083404722    9.7320562   -7445.4332     38.63728    50.194132    51.360108    51559.521 
   20900     291.6965      0.01045   0.13424794    9.7772466   -7445.2917    37.968665    50.172432     51.36265    51539.781 
   21000     301.2922       0.0105  0.050240043    9.7040919   -7445.7975    39.217689    50.210037    51.365192    51580.963 
   21100    309.82574      0.01055  -0.18281172    9.7256591   -7444.5157    40.328457    50.209436    51.367733    51582.898 
   21200    308.41901       0.0106  0.061091227    9.8879997   -7444.0538     40.14535    50.178032    51.370275    51553.186 
   21300    305.54812      0.01065  0.084087854    9.8833567   -7445.4752    39.771661     50.19218    51.372817    51570.273 
   21400    291.01325       0.0107 -0.089535154    9.8692871   -7444.7125     37.87973    50.197831    51.375358    51578.631 
   21500     296.3988      0.01075 -0.018608457     9.938753   -7445.0799     38.58074    50.185122      51.3779    51568.123 
   21600    295.25725       0.0108   0.12723955    10.030438   -7444.2955    38.432149    50.177355    51.380442    51562.693 
   21700    305.36233      0.01085 -0.046074947    10.002122   -7444.3442    39.747478    50.214898    51.382984    51603.826 
   21800    311.62214       0.0109 -0.096850828    10.031749   -7443.3129    40.562285    50.194127    51.385525    51585.031 
   21900    303.17073      0.01095  0.083523781    10.097034   -7442.5932    39.462208    50.180313    51.388067    51573.385 
   22000    301.37784        0.011  0.049788329     10.18273   -7445.2682    39.228836    50.189371    51.390609    51585.247 
   22100    294.92244      0.01105 -0.059598226    10.168581   -7444.9126     38.38857    50.199288     51.39315    51597.991 
   22200    306.22573       0.0111 -0.056104589    10.257096   -7446.1879    39.859862    50.190985    51.395692    51592.008 
   22300    302.91944      0.01115  0.051004681    10.295513   -7444.4493    39.429498    50.172433    51.398234    51575.489 
   22400    310.92775       0.0112  0.052710374      10.3224   -7443.8004      40.4719    50.195211    51.400775    51601.455 
   22500    301.48393      0.01125  -0.06653427    10.371702   -7442.9544    39.242646    50.186073    51.403317    51594.613 
   22600     286.9696       0.0113  0.038107157    10.437669   -7444.1389    37.353388    50.182133    51.405859    51593.113 
   22700    288.02557      0.01135  0.001047444    10.477299   -7444.5284    37.490839    50.197786    51.408401    51611.758 
   22800    298.28476       0.0114  -0.10376921    10.511619   -7444.7308    38.826225    50.181392    51.410942    51597.453 
   22900    306.48988      0.01145  0.072050324    10.673242   -7444.1499    39.894245    50.175434    51.413484    51593.877 
   23000    309.96322       0.0115  0.079204825    10.685441   -7444.3476    40.346352     50.19681    51.416026    51618.409 
   23100     304.2032      0.01155 -0.093528046     10.78224   -7446.1629    39.596599    50.177738    51.418567    51601.348 
   23200    287.38623       0.0116  0.014482625    10.728127   -7445.2656    37.407619    50.173184    51.421109    51599.215 
   23300    287.17007      0.01165  0.060511518    10.794633   -7444.1582    37.379483    50.186413    51.423651    51615.371 
   23400    286.73935       0.0117 -0.071286455     10.83892   -7442.4551    37.323417    50.188731    51.426192    51620.307 
   23500    302.35913      0.01175 -0.0026559573    10.932677   -7443.7488    39.356566    50.175042    51.428734    51608.778 
   23600    308.21207       0.0118   0.06350352    10.977765   -7444.8242    40.118414    50.177077    51.431276    51613.421 
   23700     290.8276      0.01185 0.0015684561     10.94708   -7444.8796    37.855565    50.191308    51.433818    51630.612 
   23800    283.16581       0.0119 -0.094402205    10.999201   -7445.4461    36.858267    50.174999    51.436359    51616.385 
   23900    297.36144      0.01195  0.077963991    11.072876   -7445.8731    38.706042    50.164126    51.438901    51607.751 
   24000    305.67363        0.012  0.055238154    11.127353   -7445.3637    39.787998    50.192346    51.441443    51639.334 
   24100    304.33109      0.01205  -0.16144543    11.137027   -7444.3125    39.613247    50.193093    51.443984    51642.654 
   24200    303.18323       0.0121  0.035033564    11.173651   -7443.8386    39.463834    50.144955    51.446526    51595.675 
   24300    300.12361      0.01215    0.1833246    11.326007   -7443.8565     39.06558    50.172288    51.449068    51626.349 
   24400    283.03862       0.0122  -0.14667651    11.254808   -7443.5625    36.841712    50.207367    51.451609    51664.997 
   24500     288.8731      0.01225  -0.06778153    11.353853   -7444.9287    37.601158    50.151432    51.454151    51609.988 
   24600    299.85231       0.0123   0.16464531    11.473704   -7444.4133    39.030265    50.155951    51.456693    51617.188 
   24700    305.74001      0.01235 -0.035666762     11.44039   -7443.9629    39.796638    50.200305    51.459235    51665.385 
   24800    299.33791       0.0124   -0.1468257    11.364807   -7443.2782    38.963309    50.180834    51.461776    51647.897 
   24900      302.811      0.01245  0.078304343    11.569435   -7444.2551    39.415384     50.13593    51.464318    51604.229 
   25000    290.66205       0.0125   0.19617572     11.65484   -7444.3182    37.834016    50.173089     51.46686    51645.026 
   25100    285.33006      0.01255  -0.21993541    11.470872   -7445.6303    37.139978    50.205224    51.469401    51680.656 
   25200    291.06213       0.0126 -0.088265273    11.663221   -7445.1596    37.886093    50.139755    51.471943    51615.812 
   25300    299.03512      0.01265   0.22005301    11.784085   -7444.5749    38.923897    50.142863    51.474485    51621.561 
   25400    317.23882       0.0127   0.02200005    11.720447   -7446.0004    41.293381    50.203341    51.477026    51686.375 
   25500    297.90015      0.01275   -0.2458472     11.71576   -7442.9125    38.776162    50.172174    51.479568    51656.837 
   25600    307.71063       0.0128   0.13662233    11.891418   -7443.9965    40.053144    50.128528     51.48211    51614.447 
   25700    305.05604      0.01285   0.18330636    11.879266   -7444.1606    39.707609    50.176789    51.484652    51666.689 
   25800     301.4596       0.0129  -0.20629788    11.812812   -7445.4483    39.239479    50.205552    51.487193    51698.859 
   25900    295.29997      0.01295  -0.18224537    12.011844   -7445.0847     38.43771    50.143984    51.489735    51638.009 
   26000    299.77742        0.013    0.3379384    12.070431   -7443.6068    39.020518    50.132842    51.492277    51629.083 
   26100    304.27797      0.01305 -0.0088549606    12.030196   -7442.6471    39.606332    50.198367    51.494818    51699.115 
   26200    303.01457       0.0131  -0.32558213     12.00664   -7442.9078    39.441881     50.17401     51.49736    51676.581 
   26300    308.57536      0.01315   0.17506656    12.209934   -7444.5204    40.165702    50.117449    51.499902    51620.874 
   26400    298.82434       0.0132    0.2557375    12.238069   -7444.4126     38.89646     50.15454    51.502443    51661.627 
   26500    286.05799      0.01325  -0.18835641    12.170935   -7444.3128    37.234729    50.203774    51.504985    51714.892 
   26600    289.85745       0.0133  -0.24184359    12.172766   -7446.2813    37.729285    50.154545    51.507527    51666.732 
   26700     301.8354      0.01335   0.24232939    12.371643   -7445.7799    39.288395    50.104916    51.510068    51618.153 
   26800    305.73295       0.0134   0.19032862    12.414522   -7444.3976    39.795719    50.173837     51.51261    51691.706 
   26900    296.45985      0.01345  -0.37717453    12.284451   -7442.1533    38.588686    50.221463    51.515152    51743.326 
   27000    300.84446       0.0135  -0.14695458    12.408413   -7442.4612    39.159409    50.108921    51.517694    51629.921 
   27100    302.44162      0.01355   0.59586597    12.567012   -7443.5188    39.367303    50.099047    51.520235    51622.294 
   27200    293.61237       0.0136 -0.088785898    12.491104   -7444.2854    38.218044    50.228496    51.522777    51758.232 
   27300    285.66887      0.01365  -0.52286923    12.437775   -7443.6049    37.184079    50.169883    51.525319    51700.384 
   27400    298.58773       0.0137   0.33261814    12.613625   -7442.5427    38.865662    50.087234     51.52786     51617.76 
   27500    305.94524      0.01375   0.27371167    12.664033   -7442.6585    39.823351    50.173698    51.530402    51709.417 
   27600    300.50236       0.0138  -0.45289562    12.596276   -7442.4643    39.114879    50.220042    51.532944    51759.732 
   27700     296.7815      0.01385 -0.094768326    12.673956   -7443.2409    38.630554    50.095216    51.535485    51633.625 
   27800    292.56327       0.0139   0.57697849    12.800303    -7443.912    38.081489    50.108154    51.538027    51649.508 
   27900    290.18096      0.01395  -0.22282983    12.818529   -7443.5414    37.771395    50.223905    51.540569    51771.373 
   28000    299.13344        0.014  -0.39460567    12.792731   -7442.0478    38.936694      50.1618    51.543111    51709.905 
   28100    316.74305      0.01405   0.39279663    12.940088   -7443.3816    41.228848    50.091029    51.545652    51639.496 
   28200    306.81272       0.0141   0.14893255    13.034992   -7443.1751    39.936267    50.184646    51.548194    51738.557 
   28300    295.01505      0.01415  -0.40998896    12.945895    -7443.282    38.400624    50.183383    51.550736    51739.806 
   28400    295.86399       0.0142  0.084393462    13.048225   -7443.5978    38.511126    50.106664    51.553277    51663.255 
   28500    299.22677      0.01425    0.2958503    13.206323   -7442.6797    38.948842    50.140784    51.555819    51700.984 
   28600    310.28285       0.0143  -0.16321332    13.081939   -7441.1437    40.387956    50.194403    51.558361    51758.822 
   28700    306.87268      0.01435  -0.21028827    13.163062   -7441.5739    39.944072    50.160289    51.560902    51726.196 
   28800    299.35435       0.0144   0.14506944    13.264412   -7442.4399    38.965449    50.115284    51.563444    51682.333 
   28900    289.79247      0.01445   0.19892747    13.366279   -7442.1624    37.720827    50.144953    51.565986    51715.478 
   29000    301.52176       0.0145  -0.18011862    13.287115   -7443.6501     39.24757    50.183249    51.568528    51757.525 
   29100    298.68875      0.01455  -0.18273928     13.30168   -7441.3551    38.878811    50.142809    51.571069    51718.366 
   29200    299.10267       0.0146     0.286032    13.436031   -7439.5203    38.932689    50.107478    51.573611    51684.472 
   29300    304.70466      0.01465  0.013712978    13.525426    -7441.135    39.661871     50.16711    51.576153    51748.531 
   29400    302.84701       0.0147  -0.20134222    13.433366   -7442.1834    39.420071    50.156818    51.578694    51740.463 
   29500    296.54209      0.01475   0.10658934    13.502431   -7442.1573    38.599392    50.133264    51.581236    51718.715 
   29600     292.4884       0.0148  0.011229373    13.609244   -7441.8882    38.071743    50.145935    51.583778    51734.335 
   29700    303.26036      0.01485 -0.037848095    13.536551      -7442.8    39.473874    50.144282    51.586319    51735.179 
   29800    311.58461       0.0149 0.0088951771    13.681256   -7441.9735      40.5574    50.140871    51.588861    51734.209 
   29900    305.06873      0.01495   0.05724979    13.686054   -7440.1309    39.709261    50.148566    51.591403    51744.697 
   30000     302.7125        0.015 -0.086256541    13.748342   -7441.7167    39.402563    50.146746    51.593945    51745.369 
   30100    304.00841      0.01505  0.029985681    13.821019   -7443.2876    39.571245    50.128996    51.596486    51729.601 
   30200    305.60936       0.0151  0.047357552    13.833637   -7443.4572    39.779632    50.137776    51.599028     51741.21 
   30300    291.48138      0.01515 0.0086663829    13.899528   -7441.2089    37.940664     50.14657     51.60157    51752.835 
   30400    305.73337       0.0152  -0.09447354    13.894518   -7441.2127    39.795774    50.149951    51.604111    51758.873 
   30500    306.59578      0.01525  0.046558916    13.958684   -7439.6107     39.90803    50.132913    51.606653    51743.837 
   30600      307.515       0.0153  0.017733885    14.020365     -7441.25     40.02768    50.148684    51.609195    51762.664 
   30700    297.45418      0.01535 -0.064707191    14.082433   -7441.6232    38.718113    50.134414    51.611736    51750.483 
   30800    301.47633       0.0154  0.078807573    14.119972   -7442.4773    39.241657    50.125894    51.614278    51744.237 
   30900    296.73987      0.01545 -0.011617836    14.140803   -7441.8239    38.625135    50.147214     51.61682    51768.795 
   31000    295.45783       0.0155 -0.097931305     14.17063   -7440.9336    38.458258    50.131564    51.619362    51755.187 
   31100    307.46362      0.01555   0.13246068    14.218585   -7441.1069    40.020991    50.124243    51.621903    51750.176 
   31200    307.09983       0.0156  0.063484013    14.265654   -7440.6834    39.973638    50.152862    51.624445    51782.273 
   31300    300.31135      0.01565  -0.17546207    14.349514   -7441.9279    39.090016    50.164329    51.626987    51796.663 
   31400    294.85026       0.0157   -0.1003451    14.288461   -7442.5989    38.379175    50.114224    51.629528    51747.475 
   31500    296.58839      0.01575   0.28303542    14.452884   -7442.4839    38.605418    50.098815     51.63207    51734.111 
   31600    313.20384       0.0158 -0.0057275256    14.401662   -7442.9196    40.768167    50.176359    51.634612    51816.736 
   31700    307.15009      0.01585  -0.29101315    14.423439   -7440.8919    39.980181    50.146228    51.637153     51788.17 
   31800    308.95818       0.0159   0.12335559    14.553337   -7441.2344    40.215531    50.082868    51.639695    51725.281 
   31900    307.68477      0.01595   0.29313129     14.56997   -7441.7381    40.049778    50.140842    51.642237    51787.704 
   32000    287.39197        0.016  -0.28177516    14.574358   -7440.1106    37.408367     50.17882    51.644779    51829.481 
   32100    304.79916      0.01605  -0.22268523    14.593599   -7442.9373    39.674173    50.111264     51.64732     51762.25 
   32200    297.29184       0.0161   0.43726247    14.733135    -7442.297    38.696983    50.068066    51.649862    51720.174 
   32300    291.69016      0.01615  0.076847881    14.773437   -7440.4377     37.96784     50.17897    51.652404    51837.288 
   32400     300.6639       0.0162  -0.51581494    14.646789   -7439.6244    39.135906    50.189626    51.654945    51850.847 
   32500    305.75722      0.01625  0.080474297    14.804967   -7440.2244    39.798879    50.067288    51.657487    51727.006 
   32600    293.69553       0.0163   0.45391148    14.932937   -7440.6831    38.228869    50.095977    51.660029    51759.192 
   32700    290.10925      0.01635  -0.21529036     14.83711    -7441.268     37.76206    50.197941     51.66257    51867.093 
   32800    289.55417       0.0164  -0.31278752    14.854289   -7440.7256    37.689809    50.118609    51.665112    51787.671 
   32900    304.99963      0.01645   0.35079396    15.057334   -7441.5394    39.700266    50.070974    51.667654    51740.995 
   33000    296.31227       0.0165   0.16593045    15.050309   -7439.6274    38.569477    50.160278    51.670196    51835.827 
   33100     306.5877      0.01655  -0.41212685     14.95417    -7439.991    39.906977    50.177821    51.672737    51856.507 
   33200    305.72284       0.0166 -0.043569588    15.107716   -7439.3226    39.794404    50.079817    51.675279     51757.77 
   33300    286.32225      0.01665   0.48188675    15.287019   -7438.6711    37.269127    50.089929    51.677821    51770.767 
   33400    293.75308       0.0167  -0.19155757    15.124227   -7441.0993     38.23636    50.194763    51.680362    51881.671 
   33500    296.21952      0.01675  -0.40653664    15.123624   -7441.5679    38.557404    50.131304    51.682904    51818.628 
   33600    308.55469       0.0168   0.38783848    15.319934   -7441.5661    40.163011    50.054993    51.685446    51742.292 
   33700    308.20011      0.01685   0.20319198    15.319967   -7439.3409    40.116857    50.148516    51.687987    51841.517 
   33800      301.408       0.0169  -0.41342172    15.266574   -7438.6978    39.232762    50.175491    51.690529    51871.954 
   33900    298.29579      0.01695  0.058008898    15.323562   -7439.4616    38.827662    50.080984    51.693071    51776.797 
   34000    302.87199        0.017   0.23886227    15.515195   -7440.8988    39.423322    50.098552    51.695613    51797.507 
   34100    301.08073      0.01705 -0.072288765    15.405469     -7441.33    39.190164    50.154555    51.698154    51857.958 
   34200    290.14061       0.0171  -0.21526706    15.393722   -7440.2536    37.766143    50.130004    51.700696    51835.122 
   34300    294.65857      0.01715   0.11427251    15.541645   -7440.2678    38.354222    50.078344    51.703238     51784.25 
   34400    304.81993       0.0172    0.1761456    15.646483   -7439.9255    39.676875    50.127103    51.705779    51837.218 
   34500    303.77796      0.01725  -0.19558033    15.582219   -7438.9652    39.541248     50.15239    51.708321    51865.917 
   34600    310.43511       0.0173 -0.057338367    15.602529   -7441.2135    40.407775    50.114641    51.710863    51829.426 
   34700    290.58766      0.01735   0.14629158    15.757566   -7440.3962    37.824333    50.090368    51.713404    51806.869 
   34800    298.04138       0.0174  0.069507122    15.775051   -7441.1065    38.794546     50.12895    51.715946    51849.322 
   34900    293.70536      0.01745  -0.15596799    15.781173   -7439.6532    38.230148    50.132094    51.718488    51855.122 
   35000     295.7235       0.0175  0.002578422    15.758485   -7438.9041     38.49284    50.110255    51.721029     51835.08 
   35100    294.69574      0.01755  0.095799239    15.897718   -7438.5591    38.359061    50.106648    51.723571    51833.896 
   35200    288.16116       0.0176  -0.01818922    15.895046   -7440.1143    37.508488    50.132354    51.726113    51863.036 
   35300    300.31765      0.01765 -0.095153865    15.886178   -7442.9404    39.090837    50.116094    51.728655    51848.762 
   35400    295.38569       0.0177  0.056199015    16.040025   -7440.7669    38.448869     50.08661    51.731196    51820.805 
   35500    303.56565      0.01775   0.14958873    16.042866   -7439.9201    39.513612    50.124588    51.733738    51862.646 
   35600    302.96784       0.0178  -0.19234326    15.939458   -7439.2602    39.435799    50.145781     51.73628    51887.123 
   35700    288.37408      0.01785 -0.044500089    16.174948   -7437.9927    37.536202    50.081016    51.738821    51822.655 
   35800    289.76238       0.0179   0.23302021     16.12376   -7440.2717    37.716911    50.102164    51.741363    51847.085 
   35900     285.0227      0.01795  -0.11557025    16.146467   -7440.6564     37.09997    50.129623    51.743905    51878.049 
   36000    296.37925        0.018   -0.1307657    16.265837   -7440.6367    38.578195    50.101704    51.746446    51851.703 
   36100    298.36425      0.01805   0.19088505    16.181168   -7439.8449    38.836572    50.088562    51.748988    51840.648 
   36200    294.93981       0.0181  -0.03329316    16.305193   -7438.9089    38.390831    50.131264     51.75153    51887.392 
   36300    314.80123      0.01815   -0.1862164    16.251928   -7440.9587    40.976092    50.114592    51.754072    51872.683 
   36400    304.72505       0.0182   0.16383054    16.379823   -7439.2113    39.664526    50.070728    51.756613    51829.826 
   36500    302.24768      0.01825  0.087191646    16.409556   -7438.8454     39.34206    50.122459    51.759155    51885.922 
   36600    300.75606       0.0183  -0.18983917    16.294548   -7440.1772    39.147903    50.126649    51.761697    51892.808 
   36700    296.15256      0.01835   0.01520461    16.489614   -7440.6274    38.548688    50.072504    51.764238    51839.301 
   36800    303.09073       0.0184   0.18992417    16.620938   -7440.6823    39.451794     50.09819     51.76678    51868.439 
   36900    303.56419      0.01845  -0.10695486    16.426171   -7438.0848    39.513423     50.13932    51.769322    51913.572 
   37000    299.95249       0.0185  -0.19483779    16.572688   -7437.3571    39.043306     50.10049    51.771863    51875.914 
   37100    298.95249      0.01855   0.22963583    16.701737   -7438.3009    38.913141    50.058042    51.774405    51834.507 
   37200    300.88988       0.0186   0.15385145    16.632946   -7439.5807    39.165321     50.12946    51.776947    51911.008 
   37300     295.9841      0.01865  -0.38624873    16.656728   -7439.3602     38.52676    50.124437    51.779489    51908.355 
   37400    297.50182       0.0187   0.07655916    16.738741   -7439.1132    38.724315    50.056183     51.78203    51840.216 
   37500    311.05111      0.01875   0.32923599    16.836151   -7438.2389    40.487958    50.080329    51.784572    51867.768 
   37600    309.32079       0.0188  -0.16056317    16.911775    -7436.641    40.262731    50.163688    51.787114    51956.652 
   37700    309.98345      0.01885   -0.3755055    16.714318   -7438.8213    40.348985    50.086874    51.789655    51879.639 
   37800    301.92339       0.0189   0.46794212    17.105735    -7439.315    39.299848     50.02117    51.792197    51814.126 
   37900    294.65505      0.01895   0.11921954    17.044309   -7438.9264    38.353764    50.141409    51.794739    51941.224 
   38000    304.36055        0.019  -0.51742144    16.827265   -7439.9687    39.617081    50.160919     51.79728    51963.984 
   38100    307.81241      0.01905  0.017510421    17.105291   -7438.6655    40.066391     50.02178    51.799822    51822.386 
   38200    319.21715       0.0191   0.56853081    17.173349   -7438.5137    41.550889    50.070117    51.802364    51875.008 
   38300    303.42182      0.01915  -0.30300922    17.028585   -7437.5408    39.494891    50.176825    51.804906    51988.114 
   38400    296.70235       0.0192  -0.37899695    17.087633   -7438.5554    38.620251    50.078819    51.807447    51889.115 
   38500     290.3648      0.01925   0.49825937    17.291342   -7437.9186    37.795324     50.02748    51.809989    51838.464 
   38600    290.34364       0.0193  0.076572662    17.285922   -7437.5831    37.792571    50.143957    51.812531    51961.707 
   38700    300.50613      0.01935  -0.53451156    17.178743    -7437.708     39.11537    50.130561    51.815072    51950.373 
   38800    300.64168       0.0194   0.26951869    17.390071   -7435.9836    39.133014     50.02503    51.817614    51843.554 
   38900    314.32244      0.01945   0.30573264     17.44313   -7436.9104     40.91377    50.113379    51.820156    51937.662 
   39000    298.41297       0.0195   -0.3695499    17.308699   -7437.5211    38.842914    50.135125    51.822697    51962.749 
   39100    292.10121      0.01955 -0.043067103    17.431791   -7438.0829    38.021344    50.067202    51.825239    51894.894 
   39200    294.82294       0.0196   0.24131948    17.529936   -7438.4027    38.375619    50.070735    51.827781    51901.102 
   39300    304.29382      0.01965 -0.040216464    17.485598   -7438.4751    39.608395    50.114504    51.830323    51949.018 
   39400    315.02807       0.0197  -0.12103964    17.502886   -7438.0343    41.005618    50.099058    51.832864    51935.553 
   39500    310.20143      0.01975  0.069977396    17.583903   -7437.0056    40.377359    50.085585    51.835406    51924.132 
   39600      300.055       0.0198  0.035014672    17.638047   -7438.7656    39.056649     50.08948    51.837948    51930.717 
   39700    298.79097      0.01985  -0.10408339    17.667364   -7439.4047    38.892117     50.10123    51.840489    51945.446 
   39800    294.11366       0.0199  0.031747873    17.719716   -7437.9145    38.283294    50.070882    51.843031    51916.525 
   39900    297.55504      0.01995  0.080750305     17.77922   -7436.5984    38.731241    50.089899    51.845573     51938.79 
   40000    309.22639         0.02 -0.059251741    17.867342    -7437.387    40.250443     50.08901    51.848114    51940.415 
   40100     302.7245      0.02005  0.054337127    17.860047   -7438.0408    39.404124    50.090393    51.850656    51944.395 
   40200    296.20684       0.0201  -0.10945187    17.878276   -7439.7194    38.555753     50.09189    51.853198    51948.493 
   40300    293.08625      0.02015  0.018738571    17.956474   -7438.5018    38.149561     50.07537     51.85574    51933.906 
   40400    304.15756       0.0202   0.08910427    17.948617   -7438.0424    39.590659    50.073202    51.858281    51934.204 
   40500    296.10133      0.02025 0.00040000129    18.086768   -7436.2168    38.542019    50.089401    51.860823    51953.551 
   40600    295.39347       0.0203 -0.015783128    18.006099   -7436.3936    38.449881    50.096017    51.863365     51962.96 
   40700    294.24024      0.02035 -0.096800208      18.1405   -7438.0724    38.299771    50.087719    51.865906    51956.899 
   40800      296.516       0.0204   0.03822701      18.1984   -7440.3968    38.595994    50.056906    51.868448    51927.481 
   40900    301.73556      0.02045   0.11767277    18.094541   -7439.9202    39.275399    50.084089     51.87099    51958.225 
   41000    295.46121       0.0205  -0.16493722    18.237782   -7437.4403    38.458698    50.089488    51.873531    51966.373 
   41100     307.1278      0.02055   0.10832207    18.258191   -7438.0669     39.97728    50.048521    51.876073    51926.414 
   41200    293.88662       0.0206   0.15359602    18.385656   -7435.9219    38.253742    50.083073    51.878615    51964.809 
   41300    296.46858      0.02065  -0.29177993    18.259925   -7435.9784    38.589822    50.125578    51.881157     52011.46 
   41400    299.40542       0.0207 -0.024313252     18.31318   -7437.5869    38.972096    50.035759    51.883698    51920.804 
   41500    296.11277      0.02075   0.36875288    18.573033   -7438.5545    38.543509    50.054635     51.88624    51942.936 
   41600    286.79434       0.0208  -0.15504757    18.414963   -7437.0608    37.330575    50.128663    51.888782    52022.304 
   41700    304.19482      0.02085  -0.33338143     18.50304   -7436.8364    39.595508    50.085047    51.891323    51979.588 
   41800    310.89223       0.0209   0.29712948    18.717584   -7436.9437    40.467277    50.022254    51.893865    51916.962 
   41900    312.63805      0.02095     0.214164    18.663945   -7437.9512    40.694522     50.10291    51.896407     52003.22 
   42000    298.66999        0.021  -0.40797449    18.628222   -7437.1917    38.876369    50.122728    51.898948    52026.337 
   42100     296.3317      0.02105  0.048602249    18.734657   -7437.5031    38.572006      50.0259     51.90149    51928.375 
   42200    288.04672       0.0211   0.34618385    18.859296   -7437.3546    37.493591    50.056705    51.904032    51962.896 
   42300    291.15714      0.02115  -0.20769573    18.755389   -7437.8186    37.898459    50.127583    51.906574    52039.021 
   42400    296.37332       0.0212  -0.23279868    18.752137   -7436.5188    38.577424    50.064698    51.909115    51976.284 
   42500    308.74769      0.02125   0.27844173    18.977227     -7436.43    40.188132    50.044018    51.911657    51957.358 
   42600    308.55858       0.0213  0.058680432    18.987251   -7436.5968    40.163517    50.094653    51.914199    52012.475 
   42700    299.83664      0.02135  -0.17044457    18.863576   -7437.0293    39.028226    50.099302     51.91674    52019.849 
   42800    290.43536       0.0214 -0.052687841    19.027583   -7437.5606    37.804508    50.048237    51.919282     51969.37 
   42900     293.6169      0.02145   0.23608549    19.147219   -7437.5667    38.218634    50.052497    51.921824    51976.338 
   43000     302.9383       0.0215 -0.095191228    19.021999   -7436.2544    39.431954    50.122773    51.924365    52051.864 
   43100    311.31814      0.02155  -0.30992241    19.225094   -7436.9314    40.522715     50.06802    51.926907    51997.549 
   43200    301.97276       0.0216   0.34408126    19.183314   -7436.4213    39.306275    50.004033    51.929449    51933.637 
   43300    294.85394      0.02165   0.21218665    19.318106   -7436.4325    38.379653    50.102972     51.93199    52038.941 
   43400    294.55442       0.0217  -0.51674849     19.18363   -7436.4233    38.340666    50.121333    51.934532    52060.559 
   43500    304.60528      0.02175  0.090829706     19.34695   -7436.5946    39.648935    49.997768    51.937074    51934.755 
   43600    308.22211       0.0218    0.4652558    19.567008   -7434.9481    40.119721    50.058183    51.939616    52000.055 
   43700    307.11906      0.02185  -0.34757338    19.291827   -7434.7989    39.976143    50.163726    51.942157    52112.243 
   43800    291.91983       0.0219  -0.37258886    19.274122   -7434.8275    37.997735     50.03978    51.944699    51986.026 
   43900    299.97397      0.02195   0.61288994    19.628781   -7436.3335    39.046101    49.981765    51.947241    51928.295 
