ITEM: TIMESTEP
5000
ITEM: NUMBER OF ATOMS
1008
ITEM: BOX BOUNDS pp pp ff
-6.9549430706936732e-01 4.9555494307069196e+01
-6.9534492138079407e-01 5.0263174921381456e+01
-1.0000000000000000e+01 1.0000000000000000e+01
ITEM: ATOMS id type xs ys zs
1 1 0.0281441 0.0109878 0.505488
2 1 0.0141021 0.0354395 0.505154
3 1 0.0283908 0.05914 0.502829
4 1 0.0138089 0.0845987 0.50437
5 1 0.0278432 0.107758 0.5025
43 1 0.0554899 0.011653 0.498965
44 1 0.069699 0.0349444 0.50379
45 1 0.0560657 0.0588925 0.499357
46 1 0.0698333 0.0825583 0.50027
47 1 0.0559291 0.106669 0.500215
85 1 0.110394 0.0116626 0.499369
86 1 0.0975015 0.035449 0.504965
87 1 0.111086 0.0592379 0.500338
88 1 0.0969268 0.08327 0.499705
89 1 0.111514 0.107138 0.50121
127 1 0.138454 0.0123359 0.502268
128 1 0.152175 0.0358222 0.503173
129 1 0.139101 0.0596118 0.4984
130 1 0.152637 0.0830834 0.493973
131 1 0.139098 0.106514 0.495143
169 1 0.19519 0.011988 0.503534
170 1 0.1807 0.0356915 0.506707
171 1 0.193801 0.0594491 0.512749
172 1 0.179963 0.0823663 0.503117
173 1 0.193681 0.106491 0.501607
211 1 0.222538 0.0108669 0.503284
212 1 0.235679 0.0353054 0.498979
213 1 0.222136 0.0599207 0.506549
214 1 0.235778 0.0836703 0.508001
215 1 0.221973 0.107003 0.507639
253 1 0.278689 0.011829 0.503997
254 1 0.264316 0.0356294 0.495646
255 1 0.27725 0.058846 0.503736
256 1 0.263711 0.0834029 0.508812
257 1 0.277033 0.107369 0.501617
295 1 0.306502 0.0114826 0.509973
296 1 0.319312 0.0357553 0.510981
297 1 0.30492 0.0601131 0.50846
298 1 0.318885 0.0834209 0.504399
299 1 0.304842 0.107482 0.504047
337 1 0.360844 0.0120536 0.507341
338 1 0.346688 0.0364242 0.511027
339 1 0.360219 0.0597502 0.503856
340 1 0.347096 0.0841139 0.499343
341 1 0.361309 0.107343 0.495586
379 1 0.388539 0.011697 0.499778
380 1 0.402351 0.0354436 0.510142
381 1 0.388715 0.0587525 0.505868
382 1 0.402168 0.0823665 0.501771
383 1 0.389359 0.105895 0.50235
421 1 0.444414 0.0117443 0.503507
422 1 0.429315 0.035516 0.50603
423 1 0.443559 0.0594812 0.503095
424 1 0.430164 0.0835644 0.50626
425 1 0.444128 0.10716 0.500024
463 1 0.472602 0.0127563 0.507651
464 1 0.48623 0.0356697 0.504288
465 1 0.471596 0.0599731 0.501398
466 1 0.485724 0.0835459 0.506045
467 1 0.47279 0.10776 0.503452
505 1 0.527605 0.0118271 0.501537
506 1 0.513753 0.0359124 0.502872
507 1 0.527483 0.0602187 0.50592
508 1 0.513492 0.0841767 0.505408
509 1 0.528135 0.107242 0.507676
547 1 0.55506 0.011946 0.499985
548 1 0.568886 0.0347197 0.502197
549 1 0.555722 0.0596131 0.501217
550 1 0.569737 0.0831543 0.508328
551 1 0.554919 0.1066 0.502337
589 1 0.610995 0.0121685 0.503711
590 1 0.596452 0.0358477 0.509035
591 1 0.61052 0.0597899 0.503863
592 1 0.597222 0.0839523 0.503948
593 1 0.61119 0.107444 0.496592
631 1 0.638482 0.0115976 0.501226
632 1 0.651703 0.0356035 0.508201
633 1 0.637993 0.0593002 0.503619
634 1 0.651758 0.0834922 0.503653
635 1 0.638728 0.107779 0.500121
673 1 0.692829 0.0116192 0.502181
674 1 0.679646 0.0358629 0.497816
675 1 0.693748 0.0597382 0.501734
676 1 0.679554 0.082635 0.502953
677 1 0.692173 0.10654 0.497713
715 1 0.7208 0.0113057 0.504252
716 1 0.734486 0.0349174 0.504168
717 1 0.721911 0.0588161 0.502647
718 1 0.7346 0.0822245 0.507926
719 1 0.720256 0.105436 0.499808
757 1 0.777084 0.0108621 0.506367
758 1 0.763468 0.0345537 0.50795
759 1 0.776713 0.0585344 0.509777
760 1 0.763173 0.0831856 0.509786
761 1 0.778092 0.106143 0.511806
799 1 0.805192 0.0113136 0.508368
800 1 0.819069 0.0342561 0.507607
801 1 0.804558 0.0583135 0.511356
802 1 0.818686 0.0828621 0.512742
803 1 0.805204 0.106525 0.507052
841 1 0.860609 0.0112386 0.502016
842 1 0.846696 0.0353154 0.50469
843 1 0.860863 0.0593708 0.506155
844 1 0.846781 0.0828244 0.504798
845 1 0.860117 0.10708 0.499225
883 1 0.888338 0.0119507 0.504877
884 1 0.902631 0.0354302 0.507911
885 1 0.888859 0.05894 0.506507
886 1 0.90277 0.0820978 0.508744
887 1 0.88806 0.106539 0.500108
925 1 0.944157 0.0117378 0.50059
926 1 0.931281 0.0352974 0.505308
927 1 0.944739 0.0587245 0.515589
928 1 0.93073 0.0821456 0.507023
929 1 0.943104 0.106715 0.50164
967 1 0.972301 0.0116343 0.499409
968 1 0.986497 0.0347798 0.503765
969 1 0.972081 0.0585476 0.50528
970 1 0.986241 0.0834057 0.502085
971 1 0.971794 0.106304 0.494889
6 1 0.0136264 0.131404 0.49866
7 1 0.0278535 0.154865 0.505037
8 1 0.0141458 0.179148 0.509793
9 1 0.028342 0.203419 0.51257
10 1 0.0142778 0.22762 0.504174
48 1 0.0698094 0.130638 0.50023
49 1 0.056176 0.154834 0.504581
50 1 0.0697768 0.17884 0.500932
51 1 0.0568764 0.202648 0.510047
52 1 0.0694996 0.226155 0.506656
90 1 0.0982971 0.130394 0.494063
91 1 0.11164 0.155071 0.494204
92 1 0.0980088 0.178542 0.498557
93 1 0.111464 0.202247 0.502012
94 1 0.0972297 0.225676 0.502462
53 1 0.0553772 0.250701 0.50396
11 1 0.0278159 0.251705 0.501433
132 1 0.153033 0.131707 0.502158
133 1 0.139045 0.155529 0.500225
134 1 0.152351 0.179676 0.501917
135 1 0.139081 0.202864 0.498402
136 1 0.152836 0.226792 0.499821
174 1 0.180233 0.131209 0.506879
175 1 0.193543 0.155471 0.508943
176 1 0.180037 0.17842 0.505562
177 1 0.19446 0.20174 0.498433
178 1 0.181022 0.226003 0.501122
216 1 0.235501 0.130951 0.515036
217 1 0.221538 0.155516 0.511841
218 1 0.235828 0.179061 0.515007
219 1 0.221902 0.202113 0.504352
220 1 0.235562 0.226412 0.505081
258 1 0.264043 0.131439 0.505299
259 1 0.277975 0.155554 0.507034
260 1 0.26384 0.179461 0.508119
261 1 0.277866 0.203566 0.498846
262 1 0.263377 0.226606 0.502588
300 1 0.319288 0.130877 0.502978
301 1 0.305137 0.154872 0.506874
302 1 0.318682 0.178694 0.50439
303 1 0.305551 0.202913 0.501256
304 1 0.319678 0.226364 0.492597
342 1 0.346643 0.130478 0.503654
343 1 0.361269 0.155401 0.508279
344 1 0.347862 0.178515 0.506638
345 1 0.361487 0.20295 0.501583
346 1 0.347143 0.226798 0.497864
347 1 0.361307 0.251068 0.501323
384 1 0.403396 0.130216 0.503284
385 1 0.389665 0.154272 0.506193
386 1 0.402374 0.178114 0.500847
387 1 0.388701 0.202804 0.495758
388 1 0.402397 0.227156 0.500732
426 1 0.431363 0.131273 0.507019
427 1 0.444341 0.154328 0.498651
428 1 0.42991 0.178305 0.499079
429 1 0.443837 0.203304 0.505203
430 1 0.430291 0.226856 0.504965
468 1 0.486547 0.131899 0.50235
469 1 0.472496 0.155159 0.505276
470 1 0.486056 0.179263 0.507118
471 1 0.471641 0.203022 0.505022
472 1 0.485398 0.226572 0.500048
389 1 0.388603 0.250584 0.494696
473 1 0.471692 0.251071 0.506201
431 1 0.443462 0.25055 0.503838
510 1 0.514708 0.132228 0.502381
511 1 0.527413 0.156278 0.503262
512 1 0.513387 0.179328 0.507336
513 1 0.527216 0.202783 0.500782
514 1 0.513638 0.226552 0.498155
552 1 0.567998 0.131533 0.505552
553 1 0.555762 0.156343 0.505347
554 1 0.569286 0.180322 0.500082
555 1 0.555057 0.203299 0.503659
556 1 0.569909 0.226706 0.501392
594 1 0.596551 0.13133 0.500427
595 1 0.610716 0.154926 0.499844
596 1 0.597278 0.178398 0.501076
597 1 0.610887 0.202652 0.503635
598 1 0.597175 0.226494 0.500383
557 1 0.555174 0.250206 0.493744
599 1 0.611681 0.250272 0.503266
636 1 0.652382 0.130517 0.496445
637 1 0.638115 0.154257 0.503389
638 1 0.652237 0.1778 0.500851
639 1 0.639227 0.202882 0.500775
640 1 0.653477 0.226379 0.505402
678 1 0.67975 0.130721 0.496462
679 1 0.693747 0.15357 0.498603
680 1 0.68032 0.178384 0.502366
681 1 0.694281 0.202318 0.510287
682 1 0.680952 0.225639 0.512218
720 1 0.735902 0.128936 0.491922
721 1 0.722511 0.153339 0.492089
722 1 0.736576 0.177033 0.499713
723 1 0.72262 0.201634 0.507332
724 1 0.735351 0.225399 0.507763
725 1 0.722485 0.249075 0.51624
641 1 0.638765 0.24929 0.504096
762 1 0.76373 0.129227 0.503652
763 1 0.778537 0.154325 0.503823
764 1 0.764348 0.178135 0.501954
765 1 0.778155 0.201762 0.497608
766 1 0.763501 0.225135 0.499723
804 1 0.819948 0.129622 0.503094
805 1 0.805953 0.153654 0.500749
806 1 0.820104 0.177771 0.502362
807 1 0.806234 0.201227 0.503626
808 1 0.819343 0.22547 0.503297
846 1 0.847732 0.130785 0.504931
847 1 0.861943 0.154431 0.497903
848 1 0.847741 0.178602 0.501143
849 1 0.861326 0.201781 0.501609
850 1 0.847025 0.226304 0.502382
767 1 0.776975 0.248961 0.496096
888 1 0.902574 0.129815 0.501636
889 1 0.889944 0.154185 0.504029
890 1 0.902963 0.17801 0.506925
891 1 0.888929 0.200976 0.502649
892 1 0.902821 0.224511 0.495456
930 1 0.929783 0.129918 0.501703
931 1 0.94434 0.153944 0.50078
932 1 0.931065 0.177576 0.504286
933 1 0.944647 0.201849 0.506249
934 1 0.930331 0.224936 0.495831
972 1 0.985889 0.130843 0.493889
973 1 0.971919 0.154448 0.493417
974 1 0.986052 0.178806 0.497372
975 1 0.972077 0.202553 0.499558
976 1 0.985936 0.226565 0.500495
935 1 0.943449 0.249302 0.497982
977 1 0.971185 0.249634 0.503986
12 1 0.0133757 0.274237 0.502409
13 1 0.0272077 0.297643 0.502485
14 1 0.0130978 0.321386 0.502343
15 1 0.027162 0.344722 0.50298
16 1 0.0139117 0.368387 0.501717
54 1 0.0685969 0.274075 0.505432
55 1 0.0552239 0.298195 0.496346
56 1 0.0688966 0.321483 0.493832
57 1 0.0547613 0.344858 0.495963
58 1 0.0687545 0.36873 0.498714
95 1 0.110978 0.25055 0.501157
96 1 0.0962905 0.27387 0.50216
97 1 0.110059 0.297388 0.500758
98 1 0.0960986 0.32107 0.504771
99 1 0.110397 0.344307 0.506562
100 1 0.0974503 0.368425 0.501665
179 1 0.193992 0.250554 0.501217
221 1 0.221463 0.249786 0.505207
137 1 0.138497 0.249841 0.505116
138 1 0.151945 0.273055 0.50623
139 1 0.138329 0.296974 0.504647
140 1 0.152636 0.320711 0.502775
141 1 0.138987 0.344438 0.506155
142 1 0.152397 0.368673 0.504534
180 1 0.179554 0.273369 0.505323
181 1 0.194746 0.29711 0.512054
182 1 0.181064 0.321201 0.504321
183 1 0.194549 0.345681 0.502173
184 1 0.180469 0.368906 0.501292
222 1 0.236728 0.273717 0.501483
223 1 0.222574 0.298183 0.506632
224 1 0.236981 0.321952 0.509231
225 1 0.2223 0.345643 0.503258
226 1 0.236447 0.368134 0.50588
263 1 0.278503 0.249806 0.491898
264 1 0.265404 0.274545 0.493442
265 1 0.278627 0.298494 0.494723
266 1 0.264829 0.322409 0.499065
267 1 0.278842 0.34687 0.499662
268 1 0.263633 0.369649 0.497361
305 1 0.3065 0.250227 0.498792
306 1 0.319587 0.275254 0.499868
307 1 0.306716 0.299207 0.501278
308 1 0.320769 0.323777 0.498226
309 1 0.305901 0.347293 0.497767
310 1 0.319017 0.370391 0.503664
348 1 0.347173 0.274448 0.497631
349 1 0.361282 0.298362 0.498237
350 1 0.347976 0.32288 0.500509
351 1 0.362076 0.346023 0.507818
352 1 0.347598 0.369676 0.505762
390 1 0.402885 0.27442 0.491384
391 1 0.390101 0.29848 0.49763
392 1 0.403319 0.322765 0.490006
393 1 0.389596 0.346616 0.500836
394 1 0.404333 0.370048 0.500201
432 1 0.430598 0.274449 0.495875
433 1 0.445191 0.298243 0.492577
434 1 0.431716 0.322226 0.491036
435 1 0.445082 0.345889 0.497902
436 1 0.431198 0.370066 0.499866
474 1 0.485976 0.274949 0.500641
475 1 0.472701 0.298617 0.507404
476 1 0.486805 0.322165 0.510026
477 1 0.472818 0.344829 0.499152
478 1 0.486391 0.368551 0.498723
515 1 0.526936 0.249768 0.497788
516 1 0.513182 0.275007 0.500371
517 1 0.527924 0.297525 0.505059
518 1 0.514815 0.321446 0.505855
519 1 0.528847 0.345087 0.504038
520 1 0.514817 0.368759 0.498693
558 1 0.570033 0.274096 0.500228
559 1 0.555807 0.297376 0.508242
560 1 0.570225 0.321195 0.505243
561 1 0.556213 0.345514 0.504476
562 1 0.569053 0.369774 0.502773
600 1 0.597832 0.273155 0.499571
601 1 0.610787 0.297639 0.501271
602 1 0.597039 0.322336 0.505105
603 1 0.610231 0.346134 0.508583
604 1 0.596681 0.369998 0.507899
683 1 0.69455 0.250052 0.508687
642 1 0.652615 0.27366 0.50487
643 1 0.638405 0.297646 0.509017
644 1 0.652699 0.321481 0.504337
645 1 0.638721 0.345979 0.508253
646 1 0.652279 0.369626 0.500682
684 1 0.681146 0.27375 0.502975
685 1 0.695057 0.297591 0.501702
686 1 0.680413 0.321223 0.510878
687 1 0.694151 0.344959 0.504267
688 1 0.680251 0.368552 0.505857
726 1 0.736828 0.272476 0.505093
727 1 0.723061 0.296315 0.500428
728 1 0.736538 0.320479 0.499306
729 1 0.722054 0.344946 0.499145
730 1 0.735445 0.368806 0.499699
809 1 0.804753 0.248383 0.4956
851 1 0.861649 0.250162 0.500362
768 1 0.763448 0.272818 0.489606
769 1 0.778283 0.296381 0.490266
770 1 0.764237 0.320743 0.4942
771 1 0.777113 0.344578 0.50156
772 1 0.763114 0.368184 0.498631
810 1 0.819126 0.272379 0.494814
811 1 0.805538 0.296807 0.490139
812 1 0.818847 0.321396 0.501298
813 1 0.804626 0.344763 0.50449
814 1 0.820072 0.368486 0.505468
852 1 0.846568 0.273101 0.503617
853 1 0.860236 0.297508 0.500057
854 1 0.847151 0.321117 0.502313
855 1 0.861271 0.344583 0.507342
856 1 0.847894 0.369146 0.505283
893 1 0.889001 0.248825 0.496615
894 1 0.90222 0.273774 0.494079
895 1 0.888279 0.297918 0.496852
896 1 0.902365 0.321628 0.492898
897 1 0.889125 0.345128 0.495056
898 1 0.90286 0.368787 0.496336
936 1 0.929777 0.273172 0.496262
937 1 0.943246 0.297656 0.50106
938 1 0.929676 0.321626 0.495345
939 1 0.944152 0.345633 0.499633
940 1 0.93067 0.369319 0.505475
978 1 0.985188 0.274404 0.501586
979 1 0.970088 0.297752 0.503031
980 1 0.985378 0.321556 0.508442
981 1 0.971826 0.344889 0.50297
982 1 0.986446 0.368417 0.502992
17 1 0.0271497 0.392678 0.500084
18 1 0.0142917 0.415939 0.495897
19 1 0.0271238 0.439744 0.490371
20 1 0.0136454 0.46349 0.495666
21 1 0.027313 0.487419 0.50007
59 1 0.0554431 0.392615 0.503339
60 1 0.0695557 0.416998 0.498865
61 1 0.0546601 0.440011 0.493329
62 1 0.069231 0.463524 0.495839
63 1 0.055172 0.487185 0.498112
101 1 0.110783 0.393481 0.50622
102 1 0.0968038 0.416417 0.499614
103 1 0.11077 0.440114 0.499295
104 1 0.0965491 0.464067 0.495942
105 1 0.109799 0.48756 0.500044
143 1 0.138496 0.392595 0.510131
144 1 0.152948 0.416566 0.512113
145 1 0.138207 0.439639 0.507447
146 1 0.151432 0.46339 0.5133
147 1 0.137536 0.48744 0.509711
185 1 0.194724 0.392507 0.509122
186 1 0.180101 0.416777 0.511114
187 1 0.193834 0.440734 0.513251
188 1 0.179767 0.464922 0.511146
189 1 0.194628 0.487648 0.50924
227 1 0.222426 0.39262 0.507256
228 1 0.235775 0.416651 0.505113
229 1 0.220977 0.440636 0.498166
230 1 0.235933 0.463765 0.504146
231 1 0.221694 0.488374 0.50559
269 1 0.278109 0.393654 0.502589
270 1 0.264045 0.417336 0.501507
271 1 0.277629 0.440372 0.504893
272 1 0.263949 0.463922 0.502839
273 1 0.276587 0.48847 0.495018
311 1 0.306194 0.39485 0.503915
312 1 0.319732 0.41835 0.494855
313 1 0.305275 0.44092 0.502122
314 1 0.318715 0.465094 0.50418
315 1 0.304925 0.488845 0.499381
353 1 0.361488 0.393379 0.500951
354 1 0.346777 0.416888 0.502112
355 1 0.360689 0.440603 0.507093
356 1 0.346784 0.464602 0.504523
357 1 0.361265 0.48775 0.505904
395 1 0.38993 0.393492 0.503067
396 1 0.403226 0.417441 0.502373
397 1 0.38999 0.440981 0.500247
398 1 0.404269 0.465309 0.501808
399 1 0.389394 0.488365 0.498445
437 1 0.444216 0.393384 0.49808
438 1 0.430736 0.417186 0.498102
439 1 0.445227 0.440896 0.500474
440 1 0.431827 0.464812 0.503133
441 1 0.445588 0.48892 0.51277
479 1 0.471993 0.392191 0.498878
480 1 0.486339 0.416183 0.496934
481 1 0.473105 0.440626 0.500285
482 1 0.487005 0.465406 0.503018
483 1 0.473291 0.489344 0.511586
521 1 0.526994 0.393336 0.496206
522 1 0.513992 0.417027 0.497133
523 1 0.527413 0.441058 0.496335
524 1 0.514305 0.465337 0.498912
525 1 0.529768 0.489222 0.501148
563 1 0.554681 0.393523 0.503938
564 1 0.569674 0.416568 0.49386
565 1 0.555809 0.440654 0.49842
566 1 0.570653 0.464539 0.501116
567 1 0.558112 0.489155 0.503752
605 1 0.610566 0.39322 0.497164
606 1 0.597738 0.416408 0.500798
607 1 0.610983 0.44014 0.507536
608 1 0.598105 0.464367 0.503298
609 1 0.612045 0.487741 0.505461
647 1 0.638019 0.392732 0.495692
648 1 0.653167 0.416055 0.500608
649 1 0.639403 0.440049 0.507205
650 1 0.65351 0.46394 0.507248
651 1 0.640082 0.488593 0.499882
689 1 0.6945 0.392459 0.513893
690 1 0.679966 0.415832 0.51034
691 1 0.695333 0.440258 0.51603
692 1 0.681977 0.464911 0.504531
693 1 0.694321 0.489946 0.499131
731 1 0.722071 0.392458 0.509484
732 1 0.735953 0.41664 0.506916
733 1 0.722495 0.440106 0.508461
734 1 0.735576 0.464376 0.500698
735 1 0.722476 0.488618 0.499543
773 1 0.778414 0.392384 0.501895
774 1 0.76428 0.415984 0.504797
775 1 0.777521 0.440317 0.50243
776 1 0.764109 0.46403 0.503374
777 1 0.777942 0.487888 0.507141
815 1 0.80596 0.392863 0.50279
816 1 0.81992 0.416783 0.503554
817 1 0.805622 0.440114 0.503725
818 1 0.819763 0.464536 0.50014
819 1 0.806031 0.48771 0.507278
857 1 0.861158 0.392999 0.502369
858 1 0.847741 0.416703 0.497346
859 1 0.860744 0.440912 0.499007
860 1 0.847492 0.464895 0.498689
861 1 0.861548 0.489141 0.503944
899 1 0.889375 0.392661 0.50695
900 1 0.902488 0.417022 0.510086
901 1 0.889073 0.440855 0.50203
902 1 0.90256 0.464227 0.505571
903 1 0.888935 0.488091 0.508474
941 1 0.945074 0.392612 0.500786
942 1 0.93086 0.41674 0.500018
943 1 0.944639 0.441066 0.500309
944 1 0.930069 0.464067 0.497103
945 1 0.943803 0.488086 0.500762
983 1 0.972835 0.392136 0.501608
984 1 0.986295 0.415354 0.499462
985 1 0.972102 0.439142 0.499737
986 1 0.986388 0.463914 0.493136
987 1 0.97193 0.487456 0.493634
22 1 0.0133016 0.511601 0.503843
23 1 0.028136 0.535693 0.507806
24 1 0.0140784 0.559725 0.506379
25 1 0.0280269 0.583439 0.503462
26 1 0.0138382 0.607005 0.496951
64 1 0.0683594 0.511663 0.49913
65 1 0.0554753 0.535557 0.503759
66 1 0.0699507 0.559706 0.506185
67 1 0.0557061 0.58341 0.502394
68 1 0.0690948 0.607731 0.500302
106 1 0.0956708 0.511141 0.500309
107 1 0.111212 0.535203 0.501854
108 1 0.0972817 0.559244 0.510255
109 1 0.1108 0.583933 0.499901
110 1 0.0967175 0.607682 0.503988
148 1 0.15304 0.511001 0.507752
149 1 0.13968 0.534947 0.50892
150 1 0.152596 0.559141 0.499219
151 1 0.138205 0.582818 0.495091
152 1 0.153036 0.606286 0.498253
190 1 0.18091 0.511352 0.508536
191 1 0.194981 0.535527 0.502823
192 1 0.180598 0.559378 0.497877
193 1 0.194279 0.583494 0.506655
194 1 0.180282 0.607043 0.501544
232 1 0.235815 0.511985 0.506236
233 1 0.222109 0.535898 0.507031
234 1 0.236887 0.559297 0.506303
235 1 0.221467 0.58324 0.511869
236 1 0.235712 0.607262 0.5123
274 1 0.263614 0.512082 0.500117
275 1 0.278383 0.535694 0.501737
276 1 0.26389 0.559317 0.504738
277 1 0.278027 0.582786 0.51228
278 1 0.263148 0.605819 0.51226
316 1 0.320245 0.511978 0.500139
317 1 0.306329 0.535 0.503091
318 1 0.319206 0.55901 0.508028
319 1 0.305609 0.583661 0.50938
320 1 0.319382 0.606591 0.507244
358 1 0.348917 0.511287 0.503677
359 1 0.361004 0.53612 0.501592
360 1 0.34754 0.559649 0.506021
361 1 0.361481 0.583637 0.503643
362 1 0.347092 0.607458 0.508052
400 1 0.403623 0.512047 0.50172
401 1 0.389356 0.53576 0.501145
402 1 0.403694 0.559433 0.503244
403 1 0.389201 0.583266 0.505929
404 1 0.402944 0.606968 0.512337
442 1 0.431777 0.512766 0.507537
443 1 0.444362 0.535989 0.501476
444 1 0.430858 0.559374 0.500056
445 1 0.444572 0.582821 0.495959
446 1 0.430095 0.606884 0.500695
484 1 0.486856 0.513061 0.502782
485 1 0.472084 0.536319 0.502278
486 1 0.485559 0.560358 0.497774
487 1 0.472239 0.583767 0.493608
488 1 0.485614 0.608111 0.49641
526 1 0.515044 0.512213 0.507615
527 1 0.528452 0.53621 0.501904
528 1 0.514038 0.559879 0.501618
529 1 0.528195 0.583549 0.502541
530 1 0.514278 0.6074 0.502157
568 1 0.570717 0.513154 0.506456
569 1 0.556652 0.537241 0.504404
570 1 0.570759 0.56025 0.505159
571 1 0.555415 0.583497 0.49684
572 1 0.569484 0.60773 0.493756
610 1 0.598249 0.512099 0.506704
611 1 0.612061 0.536286 0.499316
612 1 0.598541 0.559939 0.505194
613 1 0.611362 0.583978 0.505212
614 1 0.597241 0.607106 0.492891
652 1 0.653115 0.512608 0.501913
653 1 0.640243 0.536859 0.498862
654 1 0.653954 0.560661 0.506608
655 1 0.639156 0.583277 0.501161
656 1 0.653357 0.606847 0.502654
694 1 0.680887 0.512693 0.504242
695 1 0.695349 0.53613 0.508477
696 1 0.681869 0.559952 0.502353
697 1 0.695115 0.584002 0.506437
698 1 0.681181 0.607993 0.511092
736 1 0.736368 0.511654 0.500429
737 1 0.723059 0.535682 0.503921
738 1 0.736768 0.559677 0.505492
739 1 0.722142 0.584053 0.509174
740 1 0.736528 0.60775 0.508222
778 1 0.764419 0.512466 0.504273
779 1 0.77856 0.536118 0.505021
780 1 0.765166 0.559766 0.501911
781 1 0.777844 0.58408 0.506315
782 1 0.764336 0.608113 0.506676
820 1 0.819468 0.51195 0.508468
821 1 0.806498 0.535891 0.505611
822 1 0.820149 0.560338 0.510672
823 1 0.806116 0.583448 0.509277
824 1 0.820011 0.607305 0.508948
862 1 0.847365 0.512976 0.508044
863 1 0.861465 0.537127 0.501109
864 1 0.848322 0.560589 0.509206
865 1 0.861272 0.584049 0.512503
866 1 0.847865 0.607129 0.513293
904 1 0.901478 0.51245 0.503247
905 1 0.888931 0.535402 0.49765
906 1 0.902291 0.559328 0.498515
907 1 0.888557 0.583547 0.508299
908 1 0.902542 0.607802 0.505867
946 1 0.930117 0.511977 0.498865
947 1 0.944238 0.535506 0.496996
948 1 0.930409 0.559473 0.496249
949 1 0.943566 0.583149 0.494538
950 1 0.930448 0.607604 0.504529
988 1 0.986232 0.511449 0.493642
989 1 0.971874 0.536297 0.495455
990 1 0.986245 0.559695 0.496692
991 1 0.972095 0.583202 0.492995
992 1 0.985483 0.607114 0.496716
27 1 0.0284517 0.631031 0.497135
28 1 0.013941 0.655545 0.495992
29 1 0.028735 0.678954 0.50217
30 1 0.0151801 0.702258 0.492338
31 1 0.0287309 0.726639 0.495021
69 1 0.0559953 0.631644 0.500629
70 1 0.0701997 0.654814 0.502512
71 1 0.0571071 0.678368 0.504756
72 1 0.0700419 0.702406 0.508217
73 1 0.056352 0.725637 0.501082
111 1 0.111197 0.630502 0.502651
112 1 0.0979055 0.654336 0.500115
113 1 0.111441 0.678322 0.498728
114 1 0.0978356 0.702082 0.503115
115 1 0.112707 0.724768 0.496636
116 1 0.0984563 0.74864 0.493552
74 1 0.0710136 0.749021 0.498842
153 1 0.139063 0.629519 0.499808
154 1 0.152493 0.653755 0.50366
155 1 0.13956 0.677495 0.504223
156 1 0.153526 0.702532 0.502496
157 1 0.139949 0.726346 0.498658
158 1 0.153098 0.749988 0.496516
195 1 0.193964 0.630618 0.507723
196 1 0.180485 0.654074 0.508712
197 1 0.194152 0.678466 0.501688
198 1 0.180577 0.702434 0.508797
199 1 0.194694 0.72614 0.511838
237 1 0.220963 0.631042 0.506614
238 1 0.236184 0.654572 0.502781
239 1 0.222533 0.678431 0.503921
240 1 0.23683 0.701277 0.503854
241 1 0.222956 0.725802 0.505876
200 1 0.181089 0.750294 0.50252
279 1 0.27791 0.63037 0.505894
280 1 0.263985 0.654273 0.497408
281 1 0.279226 0.677301 0.497977
282 1 0.264419 0.700799 0.499994
283 1 0.278068 0.72514 0.499402
321 1 0.305913 0.630302 0.500948
322 1 0.319493 0.653946 0.499156
323 1 0.306458 0.677226 0.502894
324 1 0.320692 0.701847 0.497074
325 1 0.306 0.7255 0.497632
363 1 0.361993 0.631019 0.509611
364 1 0.347378 0.654623 0.503636
365 1 0.361027 0.678666 0.503838
366 1 0.347513 0.702865 0.500681
367 1 0.360977 0.726532 0.503828
368 1 0.346932 0.749947 0.49984
405 1 0.389531 0.630747 0.514529
406 1 0.403118 0.654167 0.506734
407 1 0.388408 0.678487 0.513475
408 1 0.402413 0.702782 0.510701
409 1 0.388498 0.72546 0.503135
410 1 0.402802 0.749134 0.503895
447 1 0.443856 0.630462 0.495192
448 1 0.43004 0.654223 0.499918
449 1 0.443352 0.678526 0.50219
450 1 0.430088 0.703338 0.504551
451 1 0.44343 0.727267 0.499744
452 1 0.430356 0.751168 0.499785
489 1 0.47153 0.631864 0.495699
490 1 0.486011 0.655299 0.500882
491 1 0.472107 0.678486 0.498579
492 1 0.484533 0.702214 0.498129
493 1 0.471207 0.72652 0.502193
494 1 0.484563 0.750236 0.497162
531 1 0.527999 0.63128 0.506824
532 1 0.513789 0.654946 0.502385
533 1 0.527667 0.678851 0.503384
534 1 0.513065 0.702545 0.494237
535 1 0.526469 0.726997 0.492498
573 1 0.555412 0.632127 0.504683
574 1 0.568598 0.655066 0.501553
575 1 0.554667 0.679858 0.499075
576 1 0.568093 0.702938 0.500788
577 1 0.554576 0.727864 0.502517
615 1 0.610856 0.631363 0.497257
616 1 0.596117 0.655149 0.497366
617 1 0.610185 0.678756 0.507391
618 1 0.596054 0.702338 0.504378
619 1 0.610098 0.726909 0.503993
536 1 0.51211 0.749977 0.498415
657 1 0.638533 0.630611 0.502789
658 1 0.652466 0.654337 0.498489
659 1 0.63785 0.678439 0.50189
660 1 0.6517 0.702179 0.499008
661 1 0.638375 0.727058 0.49836
699 1 0.69485 0.632521 0.510987
700 1 0.680081 0.654814 0.504089
701 1 0.694146 0.679314 0.506286
702 1 0.679962 0.703063 0.502641
703 1 0.6943 0.72647 0.505778
741 1 0.723401 0.632266 0.508708
742 1 0.737056 0.656047 0.511618
743 1 0.722218 0.679562 0.502724
744 1 0.736792 0.703266 0.508251
745 1 0.722088 0.726015 0.502207
662 1 0.65261 0.750485 0.499895
746 1 0.736165 0.749824 0.507521
783 1 0.777598 0.632032 0.51148
784 1 0.7644 0.655991 0.509741
785 1 0.778914 0.678601 0.512426
786 1 0.76554 0.702235 0.512981
787 1 0.778644 0.726301 0.508274
825 1 0.805939 0.631216 0.509854
826 1 0.820062 0.655009 0.50593
827 1 0.807011 0.678815 0.50917
828 1 0.820331 0.702073 0.513928
829 1 0.806607 0.725763 0.508235
867 1 0.860562 0.63057 0.504659
868 1 0.84747 0.654588 0.507364
869 1 0.861093 0.678859 0.507284
870 1 0.848105 0.701701 0.505345
871 1 0.861477 0.726039 0.500781
788 1 0.763989 0.749933 0.505908
872 1 0.846998 0.749396 0.502244
909 1 0.889143 0.631446 0.500204
910 1 0.903904 0.65439 0.494509
911 1 0.888949 0.678469 0.5011
912 1 0.903383 0.701596 0.503175
913 1 0.889731 0.726025 0.502249
951 1 0.944979 0.631054 0.496221
952 1 0.931759 0.654921 0.492843
953 1 0.944951 0.678484 0.48996
954 1 0.930612 0.702275 0.492949
955 1 0.945111 0.7264 0.499313
993 1 0.972401 0.631515 0.494695
994 1 0.985936 0.655949 0.489529
995 1 0.972346 0.679408 0.491198
996 1 0.9872 0.702656 0.493077
997 1 0.973205 0.725872 0.497086
32 1 0.0143262 0.749809 0.499301
33 1 0.0286614 0.773078 0.502692
34 1 0.0137271 0.797236 0.503593
35 1 0.0273893 0.821135 0.505097
36 1 0.0135216 0.845158 0.505154
37 1 0.0278959 0.868386 0.509055
75 1 0.0571581 0.773297 0.499495
76 1 0.0697487 0.797466 0.497169
77 1 0.0552956 0.820986 0.503869
78 1 0.0688836 0.845423 0.498839
79 1 0.0557628 0.868474 0.504565
117 1 0.112101 0.772892 0.500905
118 1 0.0976691 0.796854 0.500137
119 1 0.110773 0.821211 0.492462
120 1 0.0968369 0.845756 0.500079
121 1 0.111414 0.86886 0.497312
242 1 0.236619 0.749459 0.505128
159 1 0.140106 0.773939 0.498828
160 1 0.154047 0.797325 0.497127
161 1 0.13935 0.821056 0.495865
162 1 0.153465 0.844181 0.504354
163 1 0.139602 0.86815 0.499898
201 1 0.196136 0.774356 0.503135
202 1 0.180975 0.797429 0.506746
203 1 0.194759 0.820563 0.509383
204 1 0.181631 0.844513 0.505043
205 1 0.194639 0.868698 0.505749
243 1 0.223706 0.773719 0.502304
244 1 0.23693 0.797712 0.500626
245 1 0.222424 0.821163 0.500767
246 1 0.236796 0.845813 0.49772
247 1 0.222858 0.868514 0.502429
284 1 0.264716 0.748763 0.5045
326 1 0.319312 0.749734 0.500325
285 1 0.278042 0.773385 0.501832
286 1 0.264772 0.797909 0.502971
287 1 0.278956 0.82134 0.507002
288 1 0.264658 0.844215 0.499124
289 1 0.277209 0.868673 0.498615
327 1 0.306094 0.773692 0.49984
328 1 0.319582 0.796733 0.500567
329 1 0.306692 0.820637 0.504209
330 1 0.319519 0.844548 0.502741
331 1 0.304995 0.868794 0.498125
369 1 0.361473 0.773163 0.507215
370 1 0.348144 0.797607 0.503326
371 1 0.361164 0.821665 0.507076
372 1 0.346707 0.844902 0.508499
373 1 0.360016 0.868238 0.497134
411 1 0.389317 0.773658 0.504365
412 1 0.403404 0.797875 0.50019
413 1 0.389302 0.821898 0.507608
414 1 0.402949 0.845435 0.508419
415 1 0.388792 0.86872 0.504525
453 1 0.443404 0.774549 0.499175
454 1 0.431024 0.798814 0.501884
455 1 0.444996 0.821979 0.502248
456 1 0.430255 0.845509 0.506395
457 1 0.443846 0.869394 0.505908
495 1 0.470808 0.774437 0.497087
496 1 0.484923 0.798047 0.496968
497 1 0.472399 0.822333 0.496061
498 1 0.485757 0.845703 0.500598
499 1 0.472082 0.869104 0.508458
578 1 0.568425 0.751378 0.506606
620 1 0.596223 0.750507 0.50527
537 1 0.52683 0.773629 0.503409
538 1 0.512435 0.797022 0.499672
539 1 0.526972 0.821146 0.494806
540 1 0.513604 0.84487 0.499692
541 1 0.528129 0.869185 0.499914
579 1 0.554688 0.77415 0.504442
580 1 0.568899 0.797776 0.495137
581 1 0.554805 0.821023 0.492799
582 1 0.569852 0.844333 0.49387
583 1 0.555841 0.869226 0.493826
621 1 0.610551 0.774169 0.49512
622 1 0.59695 0.798485 0.497564
623 1 0.611513 0.821944 0.495338
624 1 0.596962 0.845598 0.501533
625 1 0.610463 0.869743 0.496338
704 1 0.680679 0.750767 0.501568
663 1 0.637984 0.77344 0.497654
664 1 0.65257 0.79714 0.498083
665 1 0.638826 0.820245 0.497501
666 1 0.653144 0.84439 0.494956
667 1 0.638185 0.868522 0.497339
705 1 0.695367 0.774331 0.502109
706 1 0.680031 0.79731 0.495285
707 1 0.694193 0.821025 0.500759
708 1 0.681044 0.845177 0.493879
709 1 0.694698 0.869673 0.501651
747 1 0.723401 0.773936 0.500955
748 1 0.737214 0.797726 0.501928
749 1 0.722282 0.822348 0.500168
750 1 0.736298 0.845666 0.51048
751 1 0.722583 0.869937 0.50561
830 1 0.819151 0.749932 0.506414
789 1 0.778454 0.773825 0.504717
790 1 0.765086 0.798285 0.505485
791 1 0.777777 0.823413 0.504047
792 1 0.764458 0.846813 0.50564
793 1 0.778188 0.869148 0.510916
831 1 0.805812 0.773825 0.50013
832 1 0.820331 0.798334 0.50051
833 1 0.806193 0.821647 0.500096
834 1 0.819663 0.84505 0.506351
835 1 0.805825 0.867969 0.51312
873 1 0.860598 0.772549 0.506049
874 1 0.847056 0.796994 0.507959
875 1 0.861357 0.821203 0.509106
876 1 0.847003 0.844648 0.506942
877 1 0.861246 0.869498 0.506267
914 1 0.903164 0.749547 0.50293
956 1 0.930787 0.749717 0.5016
998 1 0.986373 0.750175 0.493581
915 1 0.889487 0.773757 0.507024
916 1 0.903558 0.798213 0.509403
917 1 0.889509 0.823174 0.507853
918 1 0.90364 0.846424 0.510762
919 1 0.888618 0.870186 0.506484
957 1 0.944088 0.774005 0.505202
958 1 0.931349 0.79791 0.49873
959 1 0.944423 0.821982 0.503564
960 1 0.931493 0.846086 0.507367
961 1 0.945244 0.870495 0.506751
999 1 0.972333 0.774183 0.497142
1000 1 0.986226 0.797753 0.499479
1001 1 0.972822 0.82166 0.498286
1002 1 0.985678 0.84604 0.496546
1003 1 0.972216 0.869121 0.499252
38 1 0.0137239 0.89249 0.498653
39 1 0.0270153 0.917245 0.498321
40 1 0.0140614 0.941629 0.495087
41 1 0.0277535 0.964043 0.502454
42 1 0.0134817 0.987324 0.504113
80 1 0.0691711 0.892893 0.500568
81 1 0.0549312 0.916489 0.495692
82 1 0.0693051 0.940286 0.501436
83 1 0.0555625 0.964337 0.49893
84 1 0.0693664 0.987356 0.493095
122 1 0.0974329 0.89313 0.502891
123 1 0.111537 0.91757 0.497487
124 1 0.0970495 0.940532 0.505306
125 1 0.110651 0.963869 0.502471
126 1 0.0965203 0.987879 0.497875
164 1 0.153105 0.892673 0.502721
165 1 0.13952 0.917341 0.505221
166 1 0.152848 0.940867 0.501752
167 1 0.138188 0.964584 0.505408
168 1 0.152307 0.988595 0.493139