 # Lithium Manganese Oxide (1.03/1.97/4) - Li1.03 Mn1.97 O4
 
          72  atoms
           3  atom types
 
      0.000000000000       8.240000000000  xlo xhi
      0.000000000000       8.240000000000  ylo yhi
      0.000000000000       8.240000000000  zlo zhi
 
Masses
 
            1   6.94000000              # Li
            2   54.93804500             # Mn
            3   15.99900000             # O
 
Atoms # charge
 
         1    1          1.030000000000       1.030000000000       1.030000000000
         2    1          4.120000000000       4.120000000000       4.120000000000
         3    2          4.120000000000       4.120000000000       4.120000000000
         4    3          2.109440000000       2.109440000000       2.109440000000
         5    1          7.210000000000       3.090000000000       3.090000000000
         6    1          4.120000000000       6.180000000000       6.180000000000
         7    2          4.120000000000       6.180000000000       6.180000000000
         8    3          6.130560000000       4.169440000000       4.169440000000
         9    1          5.150000000000       1.030000000000       5.150000000000
        10    1          2.060000000000       6.180000000000       0.000000000000
        11    2          2.060000000000       6.180000000000       0.000000000000
        12    3          4.070560000000       8.190560000000       6.229440000000
        13    1          7.210000000000       7.210000000000       7.210000000000
        14    1          2.060000000000       4.120000000000       2.060000000000
        15    2          2.060000000000       4.120000000000       2.060000000000
        16    3          0.049440000000       6.130560000000       0.049440000000
        17    3          2.109440000000       8.190560000000       8.190560000000
        18    3          6.130560000000       6.130560000000       6.130560000000
        19    3          4.070560000000       2.109440000000       4.070560000000
        20    3          0.049440000000       4.169440000000       2.010560000000
        21    1          3.090000000000       7.210000000000       3.090000000000
        22    1          6.180000000000       4.120000000000       6.180000000000
        23    2          6.180000000000       4.120000000000       6.180000000000
        24    3          4.169440000000       6.130560000000       4.169440000000
        25    1          5.150000000000       5.150000000000       1.030000000000
        26    1          0.000000000000       2.060000000000       6.180000000000
        27    2          0.000000000000       2.060000000000       6.180000000000
        28    3          6.229440000000       4.070560000000       8.190560000000
        29    1          2.060000000000       2.060000000000       4.120000000000
        30    2          2.060000000000       2.060000000000       4.120000000000
        31    3          0.049440000000       0.049440000000       6.130560000000
        32    3          8.190560000000       2.109440000000       8.190560000000
        33    3          4.070560000000       4.070560000000       2.109440000000
        34    3          2.010560000000       0.049440000000       4.169440000000
        35    1          1.030000000000       5.150000000000       5.150000000000
        36    1          4.120000000000       0.000000000000       8.240000000000
        37    2          4.120000000000       0.000000000000       8.240000000000
        38    3          2.109440000000       6.229440000000       6.229440000000
        39    1          6.180000000000       2.060000000000       0.000000000000
        40    2          6.180000000000       2.060000000000       0.000000000000
        41    3          4.169440000000       0.049440000000       2.010560000000
        42    3          6.130560000000       2.010560000000       2.010560000000
        43    3          8.190560000000       4.070560000000       6.229440000000
        44    1          2.060000000000       8.240000000000       6.180000000000
        45    2          2.060000000000       8.240000000000       6.180000000000
        46    3          4.070560000000       6.229440000000       8.190560000000
        47    1          3.090000000000       3.090000000000       7.210000000000
        48    1          0.000000000000       0.000000000000       4.120000000000
        49    2          0.000000000000       0.000000000000       4.120000000000
        50    3          2.010560000000       2.010560000000       6.130560000000
        51    1          6.180000000000       6.180000000000       4.120000000000
        52    2          6.180000000000       6.180000000000       4.120000000000
        53    3          8.190560000000       8.190560000000       2.109440000000
        54    3          0.049440000000       2.010560000000       4.169440000000
        55    3          4.169440000000       4.169440000000       6.130560000000
        56    3          6.229440000000       6.229440000000       2.109440000000
        57    1          0.000000000000       6.180000000000       2.060000000000
        58    2          0.000000000000       6.180000000000       2.060000000000
        59    3          2.010560000000       4.169440000000       0.049440000000
        60    1          6.180000000000       8.240000000000       2.060000000000
        61    2          6.180000000000       8.240000000000       2.060000000000
        62    3          8.190560000000       6.229440000000       4.070560000000
        63    3          6.229440000000       8.190560000000       4.070560000000
        64    3          4.169440000000       2.010560000000       0.049440000000
        65    1          0.000000000000       4.120000000000       0.000000000000
        66    2          0.000000000000       4.120000000000       0.000000000000
        67    3          2.010560000000       6.130560000000       2.010560000000
        68    3          6.229440000000       2.109440000000       6.229440000000
        69    1          4.120000000000       2.060000000000       2.060000000000
        70    2          4.120000000000       2.060000000000       2.060000000000
        71    3          2.109440000000       4.070560000000       4.070560000000
        72    3          6.130560000000       0.049440000000       0.049440000000
